<?xml version="1.0" encoding="ISO-8859-1"?>
<modeling>
 <generator>
  <i name="program" type="string">vasp </i>
  <i name="version" type="string">5.4.1  </i>
  <i name="subversion" type="string">05Feb16 (build Jan 25 2017 20:16:33) complex                          parallel </i>
  <i name="platform" type="string">BWXE6 </i>
  <i name="date" type="string">2019 06 25 </i>
  <i name="time" type="string">10:10:35 </i>
 </generator>
 <incar>
  <i type="string" name="SYSTEM"> STF</i>
  <i type="string" name="PREC">normal</i>
  <i type="string" name="ALGO"> Fast</i>
  <i type="int" name="ISPIN">     2</i>
  <i type="int" name="NELM">    40</i>
  <i type="int" name="NELMIN">     8</i>
  <i type="int" name="IBRION">     2</i>
  <i name="EDIFF">      0.00010000</i>
  <i name="EDIFFG">     -0.03000000</i>
  <i type="int" name="NSW">    30</i>
  <i type="int" name="ISIF">     3</i>
  <i name="ENCUT">    520.00000000</i>
  <i type="int" name="NBANDS">   768</i>
  <v name="MAGMOM">      0.60000000      0.60000000      0.60000000      0.60000000      0.60000000      0.60000000      0.60000000      0.60000000      0.60000000      0.60000000      0.60000000      0.60000000      0.60000000      0.60000000      0.60000000      0.60000000      0.60000000      0.60000000      0.60000000      0.60000000
      0.60000000      0.60000000      0.60000000      0.60000000      0.60000000      0.60000000      0.60000000      0.60000000      0.60000000      0.60000000      0.60000000      0.60000000      0.60000000      0.60000000      0.60000000      0.60000000      0.60000000      0.60000000      0.60000000      0.60000000
      0.60000000      0.60000000      0.60000000      0.60000000      0.60000000      0.60000000      0.60000000      0.60000000      0.60000000      0.60000000      0.60000000      0.60000000      0.60000000      0.60000000      0.60000000      0.60000000      5.00000000      5.00000000      5.00000000      5.00000000
      5.00000000      5.00000000      5.00000000      5.00000000      0.60000000      0.60000000      0.60000000      0.60000000      0.60000000      0.60000000      0.60000000      0.60000000      0.60000000      0.60000000      0.60000000      0.60000000      0.60000000      0.60000000      0.60000000      0.60000000
      0.60000000      0.60000000      0.60000000      0.60000000      0.60000000      0.60000000      0.60000000      0.60000000      0.60000000      0.60000000      0.60000000      0.60000000      0.60000000      0.60000000      0.60000000      0.60000000      0.60000000      0.60000000      0.60000000      0.60000000
      0.60000000      0.60000000      0.60000000      0.60000000      0.60000000      0.60000000      0.60000000      0.60000000      0.60000000      0.60000000      0.60000000      0.60000000      0.60000000      0.60000000      0.60000000      0.60000000      0.60000000      0.60000000      0.60000000      0.60000000
      0.60000000      0.60000000      0.60000000      0.60000000      0.60000000      0.60000000      0.60000000      0.60000000      0.60000000      0.60000000      0.60000000      0.60000000      0.60000000      0.60000000      0.60000000      0.60000000      0.60000000      0.60000000      0.60000000      0.60000000
      0.60000000      0.60000000      0.60000000      0.60000000      0.60000000      0.60000000      0.60000000      0.60000000      0.60000000      0.60000000      0.60000000      0.60000000      0.60000000      0.60000000      0.60000000      0.60000000</v>
  <i type="string" name="LREAL"> Auto</i>
  <i type="int" name="ISMEAR">     0</i>
  <i name="SIGMA">      0.05000000</i>
  <i type="int" name="LMAXMIX">     4</i>
  <v type="int" name="KPOINT_BSE">    -1     0     0     0</v>
  <i type="int" name="NELM">    40</i>
  <i type="logical" name="LDAU"> T  </i>
  <v type="int" name="LDAUTYPE">     2</v>
  <v type="int" name="LDAUL">     0     2     2     0</v>
  <v name="LDAUU">      0.00000000      3.00000000      5.00000000      0.00000000</v>
  <v name="LDAUJ">      0.00000000      0.00000000      0.00000000      0.00000000</v>
  <i type="int" name="LDAUPRINT">     1</i>
 </incar>
 <kpoints>
  <generation param="Monkhorst-Pack">
   <v type="int" name="divisions">       2        2        2 </v>
   <v name="usershift">      0.00000000       0.00000000       0.00000000 </v>
   <v name="genvec1">      0.50000000      -0.00000000      -0.00000000 </v>
   <v name="genvec2">      0.00000000       0.50000000       0.00000000 </v>
   <v name="genvec3">      0.00000000       0.00000000       0.50000000 </v>
   <v name="shift">      0.50000000       0.50000000       0.50000000 </v>
  </generation>
  <varray name="kpointlist" >
   <v>       0.25000000       0.25000000       0.25000000 </v>
   <v>      -0.25000000       0.25000000       0.25000000 </v>
   <v>       0.25000000      -0.25000000       0.25000000 </v>
   <v>      -0.25000000      -0.25000000       0.25000000 </v>
  </varray>
  <varray name="weights" >
   <v>       0.25000000 </v>
   <v>       0.25000000 </v>
   <v>       0.25000000 </v>
   <v>       0.25000000 </v>
  </varray>
 </kpoints>
 <parameters>
  <separator name="general" >
   <i type="string" name="SYSTEM">STF</i>
   <i type="logical" name="LCOMPAT"> F  </i>
  </separator>
  <separator name="electronic" >
   <i type="string" name="PREC">normal</i>
   <i name="ENMAX">    520.00000000</i>
   <i name="ENAUG">    605.39200000</i>
   <i name="EDIFF">      0.00010000</i>
   <i type="int" name="IALGO">    68</i>
   <i type="int" name="IWAVPR">    11</i>
   <i type="int" name="NBANDS">   768</i>
   <i name="NELECT">   1032.00000000</i>
   <i type="int" name="TURBO">     0</i>
   <i type="int" name="IRESTART">     0</i>
   <i type="int" name="NREBOOT">     0</i>
   <i type="int" name="NMIN">     0</i>
   <i name="EREF">      0.00000000</i>
   <separator name="electronic smearing" >
    <i type="int" name="ISMEAR">     0</i>
    <i name="SIGMA">      0.05000000</i>
    <i name="KSPACING">      0.50000000</i>
    <i type="logical" name="KGAMMA"> T  </i>
   </separator>
   <separator name="electronic projectors" >
    <i type="logical" name="LREAL"> T  </i>
    <v name="ROPT">     -0.00050000     -0.00050000     -0.00050000     -0.00050000</v>
    <i type="int" name="LMAXPAW">  -100</i>
    <i type="int" name="LMAXMIX">     4</i>
    <i type="logical" name="NLSPLINE"> F  </i>
   </separator>
   <separator name="electronic startup" >
    <i type="int" name="ISTART">     1</i>
    <i type="int" name="ICHARG">     0</i>
    <i type="int" name="INIWAV">     1</i>
   </separator>
   <separator name="electronic spin" >
    <i type="int" name="ISPIN">     2</i>
    <i type="logical" name="LNONCOLLINEAR"> F  </i>
    <v name="MAGMOM">      0.60000000      0.60000000      0.60000000      0.60000000      0.60000000      0.60000000      0.60000000      0.60000000      0.60000000      0.60000000      0.60000000      0.60000000      0.60000000      0.60000000      0.60000000      0.60000000      0.60000000      0.60000000      0.60000000      0.60000000
      0.60000000      0.60000000      0.60000000      0.60000000      0.60000000      0.60000000      0.60000000      0.60000000      0.60000000      0.60000000      0.60000000      0.60000000      0.60000000      0.60000000      0.60000000      0.60000000      0.60000000      0.60000000      0.60000000      0.60000000
      0.60000000      0.60000000      0.60000000      0.60000000      0.60000000      0.60000000      0.60000000      0.60000000      0.60000000      0.60000000      0.60000000      0.60000000      0.60000000      0.60000000      0.60000000      0.60000000      5.00000000      5.00000000      5.00000000      5.00000000
      5.00000000      5.00000000      5.00000000      5.00000000      0.60000000      0.60000000      0.60000000      0.60000000      0.60000000      0.60000000      0.60000000      0.60000000      0.60000000      0.60000000      0.60000000      0.60000000      0.60000000      0.60000000      0.60000000      0.60000000
      0.60000000      0.60000000      0.60000000      0.60000000      0.60000000      0.60000000      0.60000000      0.60000000      0.60000000      0.60000000      0.60000000      0.60000000      0.60000000      0.60000000      0.60000000      0.60000000      0.60000000      0.60000000      0.60000000      0.60000000
      0.60000000      0.60000000      0.60000000      0.60000000      0.60000000      0.60000000      0.60000000      0.60000000      0.60000000      0.60000000      0.60000000      0.60000000      0.60000000      0.60000000      0.60000000      0.60000000      0.60000000      0.60000000      0.60000000      0.60000000
      0.60000000      0.60000000      0.60000000      0.60000000      0.60000000      0.60000000      0.60000000      0.60000000      0.60000000      0.60000000      0.60000000      0.60000000      0.60000000      0.60000000      0.60000000      0.60000000      0.60000000      0.60000000      0.60000000      0.60000000
      0.60000000      0.60000000      0.60000000      0.60000000      0.60000000      0.60000000      0.60000000      0.60000000      0.60000000      0.60000000      0.60000000      0.60000000      0.60000000      0.60000000      0.60000000      0.60000000</v>
    <i name="NUPDOWN">     -1.00000000</i>
    <i type="logical" name="LSORBIT"> F  </i>
    <v name="SAXIS">      0.00000000      0.00000000      1.00000000</v>
    <i type="logical" name="LSPIRAL"> F  </i>
    <v name="QSPIRAL">      0.00000000      0.00000000      0.00000000</v>
    <i type="logical" name="LZEROZ"> F  </i>
   </separator>
   <separator name="electronic exchange-correlation" >
    <i type="logical" name="LASPH"> F  </i>
    <i type="logical" name="LMETAGGA"> F  </i>
   </separator>
   <separator name="electronic convergence" >
    <i type="int" name="NELM">    40</i>
    <i type="int" name="NELMDL">     0</i>
    <i type="int" name="NELMIN">     8</i>
    <i name="ENINI">    520.00000000</i>
    <separator name="electronic convergence detail" >
     <i type="logical" name="LDIAG"> T  </i>
     <i type="logical" name="LSUBROT"> F  </i>
     <i name="WEIMIN">      0.00100000</i>
     <i name="EBREAK">      0.00000003</i>
     <i name="DEPER">      0.30000000</i>
     <i type="int" name="NRMM">     4</i>
     <i name="TIME">      0.40000000</i>
    </separator>
   </separator>
   <separator name="electronic mixer" >
    <i name="AMIX">      0.40000000</i>
    <i name="BMIX">      1.00000000</i>
    <i name="AMIN">      0.10000000</i>
    <i name="AMIX_MAG">      1.60000000</i>
    <i name="BMIX_MAG">      1.00000000</i>
    <separator name="electronic mixer details" >
     <i type="int" name="IMIX">     4</i>
     <i type="logical" name="MIXFIRST"> F  </i>
     <i type="int" name="MAXMIX">   -45</i>
     <i name="WC">    100.00000000</i>
     <i type="int" name="INIMIX">     1</i>
     <i type="int" name="MIXPRE">     1</i>
     <i type="int" name="MREMOVE">     5</i>
    </separator>
   </separator>
   <separator name="electronic dipolcorrection" >
    <i type="logical" name="LDIPOL"> F  </i>
    <i type="logical" name="LMONO"> F  </i>
    <i type="int" name="IDIPOL">     0</i>
    <i name="EPSILON">      1.00000000</i>
    <v name="DIPOL">   -100.00000000   -100.00000000   -100.00000000</v>
    <i name="EFIELD">      0.00000000</i>
   </separator>
  </separator>
  <separator name="grids" >
   <i type="int" name="NGX">    64</i>
   <i type="int" name="NGY">    64</i>
   <i type="int" name="NGZ">    90</i>
   <i type="int" name="NGXF">   128</i>
   <i type="int" name="NGYF">   128</i>
   <i type="int" name="NGZF">   180</i>
   <i type="logical" name="ADDGRID"> F  </i>
  </separator>
  <separator name="ionic" >
   <i type="int" name="NSW">    30</i>
   <i type="int" name="IBRION">     2</i>
   <i type="int" name="ISIF">     3</i>
   <i name="PSTRESS">      0.00000000</i>
   <i name="EDIFFG">     -0.03000000</i>
   <i type="int" name="NFREE">     1</i>
   <i name="POTIM">      0.50000000</i>
   <i name="SMASS">     -3.00000000</i>
   <i name="SCALEE">      1.00000000</i>
  </separator>
  <separator name="ionic md" >
   <i name="TEBEG">      0.00010000</i>
   <i name="TEEND">      0.00010000</i>
   <i type="int" name="NBLOCK">     1</i>
   <i type="int" name="KBLOCK">    30</i>
   <i type="int" name="NPACO">   256</i>
   <i name="APACO">     16.00000000</i>
  </separator>
  <separator name="symmetry" >
   <i type="int" name="ISYM">     2</i>
   <i name="SYMPREC">      0.00001000</i>
  </separator>
  <separator name="dos" >
   <i type="logical" name="LORBIT"> F  </i>
   <v name="RWIGS">     -1.00000000     -1.00000000     -1.00000000     -1.00000000</v>
   <i type="int" name="NEDOS">   301</i>
   <i name="EMIN">     10.00000000</i>
   <i name="EMAX">    -10.00000000</i>
   <i name="EFERMI">      0.00000000</i>
  </separator>
  <separator name="writing" >
   <i type="int" name="NWRITE">     2</i>
   <i type="logical" name="LWAVE"> T  </i>
   <i type="logical" name="LCHARG"> T  </i>
   <i type="logical" name="LPARD"> F  </i>
   <i type="logical" name="LVTOT"> F  </i>
   <i type="logical" name="LVHAR"> F  </i>
   <i type="logical" name="LELF"> F  </i>
   <i type="logical" name="LOPTICS"> F  </i>
   <v name="STM">      0.00000000      0.00000000      0.00000000      0.00000000      0.00000000      0.00000000      0.00000000</v>
  </separator>
  <separator name="performance" >
   <i type="int" name="NPAR">     2</i>
   <i type="int" name="NSIM">     4</i>
   <i type="int" name="NBLK">    -1</i>
   <i type="logical" name="LPLANE"> T  </i>
   <i type="logical" name="LSCALAPACK"> T  </i>
   <i type="logical" name="LSCAAWARE"> F  </i>
   <i type="logical" name="LSCALU"> F  </i>
   <i type="logical" name="LASYNC"> F  </i>
   <i type="logical" name="LORBITALREAL"> F  </i>
  </separator>
  <separator name="miscellaneous" >
   <i type="int" name="IDIOT">     3</i>
   <i type="logical" name="LMUSIC"> F  </i>
   <v name="POMASS">     87.62000000     47.88000000     55.84700000     16.00000000</v>
   <v name="DARWINR">      0.00000000      0.00000000      0.00000000      0.00000000</v>
   <v name="DARWINV">      1.00000000      1.00000000      1.00000000      1.00000000</v>
   <i type="logical" name="LCORR"> T  </i>
  </separator>
  <i type="logical" name="GGA_COMPAT"> T  </i>
  <i type="logical" name="LBERRY"> F  </i>
  <i type="int" name="ICORELEVEL">     0</i>
  <i type="logical" name="LDAU"> T  </i>
  <v type="int" name="LDAUTYPE">     2</v>
  <v type="int" name="LDAUL">     0</v>
  <v name="LDAUU">      0.00000000</v>
  <v name="LDAUJ">      0.00000000</v>
  <i type="int" name="LDAUPRINT">     1</i>
  <i type="int" name="I_CONSTRAINED_M">     0</i>
  <separator name="electronic exchange-correlation" >
   <i type="string" name="GGA">--</i>
   <i type="int" name="VOSKOWN">     0</i>
   <i type="logical" name="LHFCALC"> F  </i>
   <i type="string" name="PRECFOCK"></i>
   <i type="logical" name="LSYMGRAD"> F  </i>
   <i type="logical" name="LHFONE"> F  </i>
   <i type="logical" name="LRHFCALC"> F  </i>
   <i type="logical" name="LTHOMAS"> F  </i>
   <i type="logical" name="LMODELHF"> F  </i>
   <i name="ENCUT4O">     -1.00000000</i>
   <i type="int" name="EXXOEP">     0</i>
   <i type="int" name="FOURORBIT">     0</i>
   <i name="AEXX">      0.00000000</i>
   <i name="HFALPHA">      0.00000000</i>
   <i name="MCALPHA">      0.00000000</i>
   <i name="ALDAX">      1.00000000</i>
   <i name="AGGAX">      1.00000000</i>
   <i name="ALDAC">      1.00000000</i>
   <i name="AGGAC">      1.00000000</i>
   <i type="int" name="NKREDX">     1</i>
   <i type="int" name="NKREDY">     1</i>
   <i type="int" name="NKREDZ">     1</i>
   <i type="logical" name="SHIFTRED"> F  </i>
   <i type="logical" name="ODDONLY"> F  </i>
   <i type="logical" name="EVENONLY"> F  </i>
   <i type="int" name="LMAXFOCK">     0</i>
   <i type="int" name="NMAXFOCKAE">     0</i>
   <i type="logical" name="LFOCKAEDFT"> F  </i>
   <i name="HFSCREEN">      0.00000000</i>
   <i name="HFSCREENC">      0.00000000</i>
   <i type="int" name="NBANDSGWLOW">     0</i>
  </separator>
  <separator name="vdW DFT" >
   <i type="logical" name="LUSE_VDW"> F  </i>
   <i name="Zab_VDW">     -0.84910000</i>
   <i name="PARAM1">      0.12340000</i>
   <i name="PARAM2">      1.00000000</i>
   <i name="PARAM3">      0.00000000</i>
  </separator>
  <separator name="model GW" >
   <i type="int" name="MODEL_GW">     0</i>
   <i name="MODEL_EPS0">      7.71197859</i>
   <i name="MODEL_ALPHA">      1.00000000</i>
  </separator>
  <separator name="linear response parameters" >
   <i type="logical" name="LEPSILON"> F  </i>
   <i type="logical" name="LRPA"> F  </i>
   <i type="logical" name="LNABLA"> F  </i>
   <i type="logical" name="LVEL"> F  </i>
   <i type="int" name="KINTER">     0</i>
   <i name="CSHIFT">      0.10000000</i>
   <i name="OMEGAMAX">     -1.00000000</i>
   <i name="DEG_THRESHOLD">      0.00200000</i>
  </separator>
  <separator name="orbital magnetization" >
   <i type="logical" name="NUCIND"> F  </i>
   <v name="MAGPOS">      0.00000000      0.00000000      0.00000000</v>
   <i type="logical" name="LNICSALL"> T  </i>
   <i type="logical" name="ORBITALMAG"> F  </i>
   <i type="logical" name="LMAGBLOCH"> F  </i>
   <i type="logical" name="LCHIMAG"> F  </i>
   <i type="logical" name="LGAUGE"> T  </i>
   <i type="int" name="MAGATOM">     0</i>
   <v name="MAGDIPOL">      0.00000000      0.00000000      0.00000000</v>
   <v name="AVECCONST">      0.00000000      0.00000000      0.00000000</v>
  </separator>
  <separator name="response functions" >
   <i type="logical" name="LADDER"> F  </i>
   <i type="logical" name="LFXC"> F  </i>
   <i type="logical" name="LHARTREE"> T  </i>
   <i type="int" name="IBSE">     0</i>
   <v type="int" name="KPOINT">    -1     0     0     0</v>
   <i type="logical" name="LTCTE"> F  </i>
   <i type="logical" name="LTETE"> F  </i>
   <i type="logical" name="LTRIPLET"> F  </i>
   <i type="logical" name="LFXCEPS"> F  </i>
   <i type="logical" name="LFXHEG"> F  </i>
   <i type="int" name="NATURALO">     0</i>
   <i type="logical" name="L2ORDER"> F  </i>
   <i type="logical" name="LUSEW"> F  </i>
   <i name="ENCUTGW">     -2.00000000</i>
   <i name="ENCUTGWSOFT">     -2.00000000</i>
   <i name="ENCUTLF">     -1.00000000</i>
   <i type="int" name="LMAXMP2">    -1</i>
   <i name="SCISSOR">      0.00000000</i>
   <i type="int" name="NOMEGA">     0</i>
   <i type="int" name="NOMEGAR">     0</i>
   <i type="int" name="NBANDSGW">    -1</i>
   <i type="int" name="NBANDSO">    -1</i>
   <i type="int" name="NBANDSV">    -1</i>
   <i type="int" name="NELM">    40</i>
   <i type="int" name="NELMHF">     1</i>
   <i type="int" name="DIM">     3</i>
   <i type="int" name="ANTIRES">     0</i>
   <i name="OMEGAMAX">    -30.00000000</i>
   <i name="OMEGAMIN">    -30.00000000</i>
   <i name="OMEGATL">   -200.00000000</i>
   <i type="int" name="OMEGAGRID">     0</i>
   <i name="CSHIFT">     -0.10000000</i>
   <i type="logical" name="SELFENERGY"> F  </i>
   <i type="logical" name="LSPECTRAL"> F  </i>
   <i type="logical" name="LSPECTRALGW"> F  </i>
   <i type="logical" name="LSINGLES"> F  </i>
   <i type="logical" name="LFERMIGW"> F  </i>
   <i type="logical" name="ODDONLYGW"> F  </i>
   <i type="logical" name="EVENONLYGW"> F  </i>
   <i type="int" name="NKREDLFX">     1</i>
   <i type="int" name="NKREDLFY">     1</i>
   <i type="int" name="NKREDLFZ">     1</i>
   <i type="int" name="MAXMEM">  1800</i>
   <i type="int" name="TELESCOPE">     0</i>
   <i type="int" name="TAUPAR">     1</i>
   <i type="int" name="OMEGAPAR">    -1</i>
   <i name="LAMBDA">      1.00000000</i>
  </separator>
  <separator name="External order field" >
   <i name="OFIELD_KAPPA">      0.00000000</i>
   <v name="OFIELD_K">      0.00000000      0.00000000      0.00000000</v>
   <i name="OFIELD_Q6_NEAR">      0.00000000</i>
   <i name="OFIELD_Q6_FAR">      0.00000000</i>
   <i name="OFIELD_A">      0.00000000</i>
  </separator>
 </parameters>
 <atominfo>
  <atoms>     156 </atoms>
  <types>       4 </types>
  <array name="atoms" >
   <dimension dim="1">ion</dimension>
   <field type="string">element</field>
   <field type="int">atomtype</field>
   <set>
    <rc><c>Sr</c><c>   1</c></rc>
    <rc><c>Sr</c><c>   1</c></rc>
    <rc><c>Sr</c><c>   1</c></rc>
    <rc><c>Sr</c><c>   1</c></rc>
    <rc><c>Sr</c><c>   1</c></rc>
    <rc><c>Sr</c><c>   1</c></rc>
    <rc><c>Sr</c><c>   1</c></rc>
    <rc><c>Sr</c><c>   1</c></rc>
    <rc><c>Sr</c><c>   1</c></rc>
    <rc><c>Sr</c><c>   1</c></rc>
    <rc><c>Sr</c><c>   1</c></rc>
    <rc><c>Sr</c><c>   1</c></rc>
    <rc><c>Sr</c><c>   1</c></rc>
    <rc><c>Sr</c><c>   1</c></rc>
    <rc><c>Sr</c><c>   1</c></rc>
    <rc><c>Sr</c><c>   1</c></rc>
    <rc><c>Sr</c><c>   1</c></rc>
    <rc><c>Sr</c><c>   1</c></rc>
    <rc><c>Sr</c><c>   1</c></rc>
    <rc><c>Sr</c><c>   1</c></rc>
    <rc><c>Sr</c><c>   1</c></rc>
    <rc><c>Sr</c><c>   1</c></rc>
    <rc><c>Sr</c><c>   1</c></rc>
    <rc><c>Sr</c><c>   1</c></rc>
    <rc><c>Sr</c><c>   1</c></rc>
    <rc><c>Sr</c><c>   1</c></rc>
    <rc><c>Sr</c><c>   1</c></rc>
    <rc><c>Sr</c><c>   1</c></rc>
    <rc><c>Sr</c><c>   1</c></rc>
    <rc><c>Sr</c><c>   1</c></rc>
    <rc><c>Sr</c><c>   1</c></rc>
    <rc><c>Sr</c><c>   1</c></rc>
    <rc><c>Ti</c><c>   2</c></rc>
    <rc><c>Ti</c><c>   2</c></rc>
    <rc><c>Ti</c><c>   2</c></rc>
    <rc><c>Ti</c><c>   2</c></rc>
    <rc><c>Ti</c><c>   2</c></rc>
    <rc><c>Ti</c><c>   2</c></rc>
    <rc><c>Ti</c><c>   2</c></rc>
    <rc><c>Ti</c><c>   2</c></rc>
    <rc><c>Ti</c><c>   2</c></rc>
    <rc><c>Ti</c><c>   2</c></rc>
    <rc><c>Ti</c><c>   2</c></rc>
    <rc><c>Ti</c><c>   2</c></rc>
    <rc><c>Ti</c><c>   2</c></rc>
    <rc><c>Ti</c><c>   2</c></rc>
    <rc><c>Ti</c><c>   2</c></rc>
    <rc><c>Ti</c><c>   2</c></rc>
    <rc><c>Ti</c><c>   2</c></rc>
    <rc><c>Ti</c><c>   2</c></rc>
    <rc><c>Ti</c><c>   2</c></rc>
    <rc><c>Ti</c><c>   2</c></rc>
    <rc><c>Ti</c><c>   2</c></rc>
    <rc><c>Ti</c><c>   2</c></rc>
    <rc><c>Ti</c><c>   2</c></rc>
    <rc><c>Ti</c><c>   2</c></rc>
    <rc><c>Fe</c><c>   3</c></rc>
    <rc><c>Fe</c><c>   3</c></rc>
    <rc><c>Fe</c><c>   3</c></rc>
    <rc><c>Fe</c><c>   3</c></rc>
    <rc><c>Fe</c><c>   3</c></rc>
    <rc><c>Fe</c><c>   3</c></rc>
    <rc><c>Fe</c><c>   3</c></rc>
    <rc><c>Fe</c><c>   3</c></rc>
    <rc><c>O </c><c>   4</c></rc>
    <rc><c>O </c><c>   4</c></rc>
    <rc><c>O </c><c>   4</c></rc>
    <rc><c>O </c><c>   4</c></rc>
    <rc><c>O </c><c>   4</c></rc>
    <rc><c>O </c><c>   4</c></rc>
    <rc><c>O </c><c>   4</c></rc>
    <rc><c>O </c><c>   4</c></rc>
    <rc><c>O </c><c>   4</c></rc>
    <rc><c>O </c><c>   4</c></rc>
    <rc><c>O </c><c>   4</c></rc>
    <rc><c>O </c><c>   4</c></rc>
    <rc><c>O </c><c>   4</c></rc>
    <rc><c>O </c><c>   4</c></rc>
    <rc><c>O </c><c>   4</c></rc>
    <rc><c>O </c><c>   4</c></rc>
    <rc><c>O </c><c>   4</c></rc>
    <rc><c>O </c><c>   4</c></rc>
    <rc><c>O </c><c>   4</c></rc>
    <rc><c>O </c><c>   4</c></rc>
    <rc><c>O </c><c>   4</c></rc>
    <rc><c>O </c><c>   4</c></rc>
    <rc><c>O </c><c>   4</c></rc>
    <rc><c>O </c><c>   4</c></rc>
    <rc><c>O </c><c>   4</c></rc>
    <rc><c>O </c><c>   4</c></rc>
    <rc><c>O </c><c>   4</c></rc>
    <rc><c>O </c><c>   4</c></rc>
    <rc><c>O </c><c>   4</c></rc>
    <rc><c>O </c><c>   4</c></rc>
    <rc><c>O </c><c>   4</c></rc>
    <rc><c>O </c><c>   4</c></rc>
    <rc><c>O </c><c>   4</c></rc>
    <rc><c>O </c><c>   4</c></rc>
    <rc><c>O </c><c>   4</c></rc>
    <rc><c>O </c><c>   4</c></rc>
    <rc><c>O </c><c>   4</c></rc>
    <rc><c>O </c><c>   4</c></rc>
    <rc><c>O </c><c>   4</c></rc>
    <rc><c>O </c><c>   4</c></rc>
    <rc><c>O </c><c>   4</c></rc>
    <rc><c>O </c><c>   4</c></rc>
    <rc><c>O </c><c>   4</c></rc>
    <rc><c>O </c><c>   4</c></rc>
    <rc><c>O </c><c>   4</c></rc>
    <rc><c>O </c><c>   4</c></rc>
    <rc><c>O </c><c>   4</c></rc>
    <rc><c>O </c><c>   4</c></rc>
    <rc><c>O </c><c>   4</c></rc>
    <rc><c>O </c><c>   4</c></rc>
    <rc><c>O </c><c>   4</c></rc>
    <rc><c>O </c><c>   4</c></rc>
    <rc><c>O </c><c>   4</c></rc>
    <rc><c>O </c><c>   4</c></rc>
    <rc><c>O </c><c>   4</c></rc>
    <rc><c>O </c><c>   4</c></rc>
    <rc><c>O </c><c>   4</c></rc>
    <rc><c>O </c><c>   4</c></rc>
    <rc><c>O </c><c>   4</c></rc>
    <rc><c>O </c><c>   4</c></rc>
    <rc><c>O </c><c>   4</c></rc>
    <rc><c>O </c><c>   4</c></rc>
    <rc><c>O </c><c>   4</c></rc>
    <rc><c>O </c><c>   4</c></rc>
    <rc><c>O </c><c>   4</c></rc>
    <rc><c>O </c><c>   4</c></rc>
    <rc><c>O </c><c>   4</c></rc>
    <rc><c>O </c><c>   4</c></rc>
    <rc><c>O </c><c>   4</c></rc>
    <rc><c>O </c><c>   4</c></rc>
    <rc><c>O </c><c>   4</c></rc>
    <rc><c>O </c><c>   4</c></rc>
    <rc><c>O </c><c>   4</c></rc>
    <rc><c>O </c><c>   4</c></rc>
    <rc><c>O </c><c>   4</c></rc>
    <rc><c>O </c><c>   4</c></rc>
    <rc><c>O </c><c>   4</c></rc>
    <rc><c>O </c><c>   4</c></rc>
    <rc><c>O </c><c>   4</c></rc>
    <rc><c>O </c><c>   4</c></rc>
    <rc><c>O </c><c>   4</c></rc>
    <rc><c>O </c><c>   4</c></rc>
    <rc><c>O </c><c>   4</c></rc>
    <rc><c>O </c><c>   4</c></rc>
    <rc><c>O </c><c>   4</c></rc>
    <rc><c>O </c><c>   4</c></rc>
    <rc><c>O </c><c>   4</c></rc>
    <rc><c>O </c><c>   4</c></rc>
    <rc><c>O </c><c>   4</c></rc>
    <rc><c>O </c><c>   4</c></rc>
    <rc><c>O </c><c>   4</c></rc>
    <rc><c>O </c><c>   4</c></rc>
   </set>
  </array>
  <array name="atomtypes" >
   <dimension dim="1">type</dimension>
   <field type="int">atomspertype</field>
   <field type="string">element</field>
   <field>mass</field>
   <field>valence</field>
   <field type="string">pseudopotential</field>
   <set>
    <rc><c>  32</c><c>Sr</c><c>     87.62000000</c><c>     10.00000000</c><c>  PAW_PBE Sr_sv 07Sep2000               </c></rc>
    <rc><c>  24</c><c>Ti</c><c>     47.88000000</c><c>      4.00000000</c><c>  PAW_PBE Ti 08Apr2002                  </c></rc>
    <rc><c>   8</c><c>Fe</c><c>     55.84700000</c><c>      8.00000000</c><c>  PAW_PBE Fe 06Sep2000                  </c></rc>
    <rc><c>  92</c><c>O </c><c>     16.00000000</c><c>      6.00000000</c><c>  PAW_PBE O 08Apr2002                   </c></rc>
   </set>
  </array>
 </atominfo>
 <structure name="initialpos" >
  <crystal>
   <varray name="basis" >
    <v>      11.22216957      -0.01900474      -0.01243426 </v>
    <v>      -0.01902897      11.22324115       0.00916574 </v>
    <v>      -0.01775927       0.01306225      15.92011187 </v>
   </varray>
   <i name="volume">   2005.11443240 </i>
   <varray name="rec_basis" >
    <v>       0.08910969       0.00015100       0.00009928 </v>
    <v>       0.00015081       0.08910114      -0.00007294 </v>
    <v>       0.00006951      -0.00005118       0.06281375 </v>
   </varray>
  </crystal>
  <varray name="positions" >
   <v>       0.99846054       0.24441731       0.12495032 </v>
   <v>       0.00652823       0.23676305       0.62026558 </v>
   <v>       0.00311890       0.75378109       0.11994325 </v>
   <v>       0.00782031       0.76277255       0.62792598 </v>
   <v>       0.50174623       0.24296479       0.12525324 </v>
   <v>       0.49343306       0.26076828       0.62131428 </v>
   <v>       0.49644318       0.75278781       0.12286372 </v>
   <v>       0.49347900       0.74548397       0.62673924 </v>
   <v>       0.99009259       0.24220817       0.37437254 </v>
   <v>       0.01314211       0.24194124       0.88041494 </v>
   <v>       0.00645715       0.75641175       0.37680870 </v>
   <v>       0.00038810       0.75855355       0.87588934 </v>
   <v>       0.50559984       0.25296144       0.37004083 </v>
   <v>       0.49134833       0.24989387       0.88343450 </v>
   <v>       0.48820631       0.74270322       0.37062587 </v>
   <v>       0.50223502       0.75434947       0.88085933 </v>
   <v>       0.25659680       0.00168974       0.12166073 </v>
   <v>       0.24132542       0.00082060       0.62643956 </v>
   <v>       0.25327634       0.49727268       0.12109624 </v>
   <v>       0.25071680       0.49855605       0.62593434 </v>
   <v>       0.74596325       0.00971492       0.12349025 </v>
   <v>       0.76213597       0.00364211       0.62317495 </v>
   <v>       0.74335953       0.49048700       0.12228734 </v>
   <v>       0.74307759       0.50080763       0.62038178 </v>
   <v>       0.24374082       0.99675419       0.37572604 </v>
   <v>       0.25430614       0.00457423       0.87739849 </v>
   <v>       0.25356923       0.50049590       0.37740459 </v>
   <v>       0.25246000       0.49562359       0.87693814 </v>
   <v>       0.75107838       0.01695449       0.37237431 </v>
   <v>       0.75378330       0.99826722       0.88178107 </v>
   <v>       0.74134582       0.48581059       0.37447577 </v>
   <v>       0.74718064       0.50730821       0.87906020 </v>
   <v>       0.00242481       0.00120735       0.99965713 </v>
   <v>       0.99850923       0.49847934       0.99991517 </v>
   <v>       0.99726977       0.49476185       0.50010377 </v>
   <v>       0.49404203       0.01322267       0.50127716 </v>
   <v>       0.49839657       0.49918082       0.00043131 </v>
   <v>       0.49786811       0.50044830       0.49917431 </v>
   <v>       0.24432437       0.25163139       0.49732099 </v>
   <v>       0.25110848       0.75027734       0.99882248 </v>
   <v>       0.24780096       0.74959146       0.50160105 </v>
   <v>       0.74979780       0.24975154       0.00080699 </v>
   <v>       0.75165347       0.74931411       0.00195056 </v>
   <v>       0.76459652       0.74088430       0.49922684 </v>
   <v>       0.25437311       0.24225475       0.24997893 </v>
   <v>       0.25203366       0.24805654       0.75036594 </v>
   <v>       0.24929924       0.75206139       0.24846389 </v>
   <v>       0.25258062       0.75332543       0.75207124 </v>
   <v>       0.75283539       0.25362798       0.75019216 </v>
   <v>       0.74335439       0.76067861       0.24966929 </v>
   <v>       0.74673384       0.75822364       0.74957717 </v>
   <v>       0.00004471       0.99979411       0.24983872 </v>
   <v>       0.01119265       0.49321675       0.25042821 </v>
   <v>       0.00466883       0.50947113       0.74935269 </v>
   <v>       0.49898281       0.49731416       0.24820375 </v>
   <v>       0.49890817       0.50339568       0.75128737 </v>
   <v>       0.99717876       0.00171570       0.49920277 </v>
   <v>       0.50138643       0.00227927       0.00013921 </v>
   <v>       0.25107828       0.24874323       0.00254722 </v>
   <v>       0.75058129       0.24914212       0.49980874 </v>
   <v>       0.74729850       0.24976239       0.24924578 </v>
   <v>       0.00168772       0.99939156       0.75061036 </v>
   <v>       0.49903512       0.99898330       0.25073287 </v>
   <v>       0.49575312       0.98901018       0.74976332 </v>
   <v>       0.11115344       0.14012855       0.25394714 </v>
   <v>       0.12545901       0.12975954       0.75005950 </v>
   <v>       0.10116016       0.64485107       0.25095000 </v>
   <v>       0.10815230       0.63752383       0.75008507 </v>
   <v>       0.61119262       0.13252194       0.25235192 </v>
   <v>       0.62244469       0.63154108       0.25243671 </v>
   <v>       0.60728088       0.64469158       0.75210946 </v>
   <v>       0.38563486       0.36210097       0.24743885 </v>
   <v>       0.38480132       0.36864599       0.74685763 </v>
   <v>       0.39012707       0.85824400       0.24837745 </v>
   <v>       0.39125863       0.85688173       0.75157684 </v>
   <v>       0.87796543       0.38289231       0.24984426 </v>
   <v>       0.89435378       0.85066069       0.24808730 </v>
   <v>       0.88921604       0.85587321       0.74764500 </v>
   <v>       0.36150172       0.10882355       0.25942348 </v>
   <v>       0.38399242       0.12299667       0.74244690 </v>
   <v>       0.36011528       0.61218135       0.25169042 </v>
   <v>       0.35894899       0.61007228       0.74847561 </v>
   <v>       0.86640024       0.11258840       0.24817445 </v>
   <v>       0.86788653       0.12526735       0.75030258 </v>
   <v>       0.85464984       0.60157031       0.74452617 </v>
   <v>       0.13788193       0.39020876       0.25151083 </v>
   <v>       0.12610599       0.37962163       0.75106796 </v>
   <v>       0.14301972       0.89112237       0.24849945 </v>
   <v>       0.14091045       0.88377155       0.75150957 </v>
   <v>       0.62922301       0.38439188       0.24869711 </v>
   <v>       0.63846223       0.38738785       0.74987495 </v>
   <v>       0.64237599       0.88683421       0.24466050 </v>
   <v>       0.64864242       0.90340540       0.75363616 </v>
   <v>       0.36347383       0.38782686       0.00071569 </v>
   <v>       0.36140984       0.38888165       0.50384905 </v>
   <v>       0.36373686       0.88321073       0.99727626 </v>
   <v>       0.37352702       0.88119452       0.50565020 </v>
   <v>       0.85995824       0.38957007       0.00243952 </v>
   <v>       0.85843029       0.39446980       0.49742485 </v>
   <v>       0.86300196       0.88636743       0.00527322 </v>
   <v>       0.84238881       0.89224955       0.49549879 </v>
   <v>       0.13703600       0.11199130       0.99671623 </v>
   <v>       0.14146687       0.11310920       0.49899684 </v>
   <v>       0.13561378       0.60958615       0.99463268 </v>
   <v>       0.13543678       0.60895939       0.50355124 </v>
   <v>       0.64090930       0.11533024       0.99906996 </v>
   <v>       0.63946631       0.10674125       0.49981788 </v>
   <v>       0.63730630       0.61346233       0.99958091 </v>
   <v>       0.62680546       0.63230807       0.49541910 </v>
   <v>       0.10973626       0.36398407       0.00460535 </v>
   <v>       0.10706656       0.36177513       0.49233221 </v>
   <v>       0.11385320       0.86157716       0.99912702 </v>
   <v>       0.11402786       0.86135715       0.50018905 </v>
   <v>       0.61225529       0.36445870       0.00201015 </v>
   <v>       0.61233882       0.36992893       0.49885462 </v>
   <v>       0.61681697       0.86170335       0.00636573 </v>
   <v>       0.38773375       0.13530237       0.00118848 </v>
   <v>       0.38962273       0.14108097       0.49747559 </v>
   <v>       0.38686596       0.63639183       0.99952597 </v>
   <v>       0.38190809       0.63426620       0.49969578 </v>
   <v>       0.88898262       0.13898458       0.99949059 </v>
   <v>       0.88971101       0.14139114       0.49989159 </v>
   <v>       0.88912694       0.63802244       0.99150888 </v>
   <v>       0.89256140       0.64145175       0.51484938 </v>
   <v>       0.00412074       0.00182779       0.12486522 </v>
   <v>       0.00040844       0.99728330       0.62431162 </v>
   <v>       0.99048887       0.51437235       0.12752704 </v>
   <v>       0.99216558       0.47839103       0.62794050 </v>
   <v>       0.49831420       0.00382704       0.12524008 </v>
   <v>       0.51871591       0.99317031       0.62331661 </v>
   <v>       0.49806079       0.50623130       0.12493622 </v>
   <v>       0.50434112       0.50475755       0.62470630 </v>
   <v>       0.00002295       0.99626949       0.37343679 </v>
   <v>       0.99594942       0.99645705       0.87616842 </v>
   <v>       0.98476908       0.51842435       0.37326066 </v>
   <v>       0.98548212       0.48224546       0.86961176 </v>
   <v>       0.51774128       0.97379916       0.38274882 </v>
   <v>       0.50796313       0.00948204       0.87307558 </v>
   <v>       0.49517734       0.49890548       0.37457739 </v>
   <v>       0.49896417       0.50002460       0.87506816 </v>
   <v>       0.25299123       0.25648675       0.37543058 </v>
   <v>       0.25464325       0.25081456       0.87336967 </v>
   <v>       0.24961957       0.75065663       0.37568655 </v>
   <v>       0.24990453       0.74524609       0.87436361 </v>
   <v>       0.74889654       0.25008010       0.37356307 </v>
   <v>       0.74925544       0.25428508       0.87246103 </v>
   <v>       0.76597592       0.73401112       0.37215175 </v>
   <v>       0.74960560       0.75282428       0.87508820 </v>
   <v>       0.24929920       0.24462195       0.12828426 </v>
   <v>       0.24685154       0.25328497       0.62252483 </v>
   <v>       0.24837345       0.74479769       0.12393483 </v>
   <v>       0.24815227       0.74833717       0.62651334 </v>
   <v>       0.75059709       0.24880571       0.12452426 </v>
   <v>       0.74588449       0.25285292       0.62858974 </v>
   <v>       0.76607692       0.72649475       0.12972249 </v>
   <v>       0.73108198       0.76269850       0.62062171 </v>
  </varray>
 </structure>
 <calculation>
  <scstep>
   <time name="dav">  600.32  600.33</time>
   <time name="total">  607.48  607.57</time>
   <energy>
    <i name="alphaZ">   5628.28542627 </i>
    <i name="ewald"> -61019.68473432 </i>
    <i name="hartreedc"> -16511.25709013 </i>
    <i name="XCdc">   2962.09913399 </i>
    <i name="pawpsdc"> 112348.73663405 </i>
    <i name="pawaedc">-111247.96231368 </i>
    <i name="eentropy">     -0.00306768 </i>
    <i name="bandstr">  -7060.50489010 </i>
    <i name="atom">  73783.44779670 </i>
    <i name="e_fr_energy">  -1116.84310490 </i>
    <i name="e_wo_entrp">  -1116.84003723 </i>
    <i name="e_0_energy">  -1116.84157106 </i>
   </energy>
  </scstep>
  <scstep>
   <time name="diag">   65.06   65.12</time>
   <time name="diis">   59.55   59.58</time>
   <time name="orth">   33.33   33.33</time>
   <time name="total">  165.11  165.20</time>
   <energy>
    <i name="e_fr_energy">  -1116.84310515 </i>
    <i name="e_wo_entrp">  -1116.84000448 </i>
    <i name="e_0_energy">  -1116.84155482 </i>
   </energy>
  </scstep>
  <scstep>
   <time name="diag">   65.05   65.05</time>
   <time name="diis">   53.09   53.09</time>
   <time name="orth">   33.37   33.37</time>
   <time name="total">  158.66  158.71</time>
   <energy>
    <i name="e_fr_energy">  -1116.84310530 </i>
    <i name="e_wo_entrp">  -1116.84001221 </i>
    <i name="e_0_energy">  -1116.84155875 </i>
   </energy>
  </scstep>
  <scstep>
   <time name="diag">   65.07   65.07</time>
   <time name="diis">   46.52   46.55</time>
   <time name="orth">   33.32   33.32</time>
   <time name="total">  152.06  152.18</time>
   <energy>
    <i name="e_fr_energy">  -1116.84310543 </i>
    <i name="e_wo_entrp">  -1116.84001691 </i>
    <i name="e_0_energy">  -1116.84156117 </i>
   </energy>
  </scstep>
  <scstep>
   <time name="diag">   65.02   65.02</time>
   <time name="diis">   46.05   46.05</time>
   <time name="orth">   33.33   33.33</time>
   <time name="total">  151.56  151.69</time>
   <energy>
    <i name="e_fr_energy">  -1116.84310548 </i>
    <i name="e_wo_entrp">  -1116.84001818 </i>
    <i name="e_0_energy">  -1116.84156183 </i>
   </energy>
  </scstep>
  <scstep>
   <time name="diag">   65.03   65.04</time>
   <time name="diis">   42.86   42.86</time>
   <time name="orth">   33.35   33.35</time>
   <time name="total">  148.39  148.74</time>
   <energy>
    <i name="e_fr_energy">  -1116.84310553 </i>
    <i name="e_wo_entrp">  -1116.84001723 </i>
    <i name="e_0_energy">  -1116.84156138 </i>
   </energy>
  </scstep>
  <scstep>
   <time name="diag">   64.71   64.72</time>
   <time name="diis">   42.64   42.64</time>
   <time name="orth">   33.34   33.34</time>
   <time name="total">  147.89  147.96</time>
   <energy>
    <i name="e_fr_energy">  -1116.84310554 </i>
    <i name="e_wo_entrp">  -1116.84001790 </i>
    <i name="e_0_energy">  -1116.84156172 </i>
   </energy>
  </scstep>
  <scstep>
   <time name="diag">   64.73   64.74</time>
   <time name="diis">   41.42   41.42</time>
   <time name="orth">   33.29   33.29</time>
   <time name="total">  140.51  140.73</time>
   <energy>
    <i name="alphaZ">   5628.28542627 </i>
    <i name="ewald"> -61019.68473432 </i>
    <i name="hartreedc"> -16511.27143745 </i>
    <i name="XCdc">   2962.09946556 </i>
    <i name="pawpsdc"> 112348.37548135 </i>
    <i name="pawaedc">-111247.60452681 </i>
    <i name="eentropy">     -0.00308820 </i>
    <i name="bandstr">  -7060.48748865 </i>
    <i name="atom">  73783.44779670 </i>
    <i name="e_fr_energy">  -1116.84310555 </i>
    <i name="e_wo_entrp">  -1116.84001734 </i>
    <i name="e_0_energy">  -1116.84156145 </i>
   </energy>
  </scstep>
  <structure>
   <crystal>
    <varray name="basis" >
     <v>      11.22216957      -0.01900474      -0.01243426 </v>
     <v>      -0.01902897      11.22324115       0.00916574 </v>
     <v>      -0.01775927       0.01306225      15.92011187 </v>
    </varray>
    <i name="volume">   2005.11443240 </i>
    <varray name="rec_basis" >
     <v>       0.08910969       0.00015100       0.00009928 </v>
     <v>       0.00015081       0.08910114      -0.00007294 </v>
     <v>       0.00006951      -0.00005118       0.06281375 </v>
    </varray>
   </crystal>
   <varray name="positions" >
    <v>       0.99846054       0.24441731       0.12495032 </v>
    <v>       0.00652823       0.23676305       0.62026558 </v>
    <v>       0.00311890       0.75378109       0.11994325 </v>
    <v>       0.00782031       0.76277255       0.62792598 </v>
    <v>       0.50174623       0.24296479       0.12525324 </v>
    <v>       0.49343306       0.26076828       0.62131428 </v>
    <v>       0.49644318       0.75278781       0.12286372 </v>
    <v>       0.49347900       0.74548397       0.62673924 </v>
    <v>       0.99009259       0.24220817       0.37437254 </v>
    <v>       0.01314211       0.24194124       0.88041494 </v>
    <v>       0.00645715       0.75641175       0.37680870 </v>
    <v>       0.00038810       0.75855355       0.87588934 </v>
    <v>       0.50559984       0.25296144       0.37004083 </v>
    <v>       0.49134833       0.24989387       0.88343450 </v>
    <v>       0.48820631       0.74270322       0.37062587 </v>
    <v>       0.50223502       0.75434947       0.88085933 </v>
    <v>       0.25659680       0.00168974       0.12166073 </v>
    <v>       0.24132542       0.00082060       0.62643956 </v>
    <v>       0.25327634       0.49727268       0.12109624 </v>
    <v>       0.25071680       0.49855605       0.62593434 </v>
    <v>       0.74596325       0.00971492       0.12349025 </v>
    <v>       0.76213597       0.00364211       0.62317495 </v>
    <v>       0.74335953       0.49048700       0.12228734 </v>
    <v>       0.74307759       0.50080763       0.62038178 </v>
    <v>       0.24374082       0.99675419       0.37572604 </v>
    <v>       0.25430614       0.00457423       0.87739849 </v>
    <v>       0.25356923       0.50049590       0.37740459 </v>
    <v>       0.25246000       0.49562359       0.87693814 </v>
    <v>       0.75107838       0.01695449       0.37237431 </v>
    <v>       0.75378330       0.99826722       0.88178107 </v>
    <v>       0.74134582       0.48581059       0.37447577 </v>
    <v>       0.74718064       0.50730821       0.87906020 </v>
    <v>       0.00242481       0.00120735       0.99965713 </v>
    <v>       0.99850923       0.49847934       0.99991517 </v>
    <v>       0.99726977       0.49476185       0.50010377 </v>
    <v>       0.49404203       0.01322267       0.50127716 </v>
    <v>       0.49839657       0.49918082       0.00043131 </v>
    <v>       0.49786811       0.50044830       0.49917431 </v>
    <v>       0.24432437       0.25163139       0.49732099 </v>
    <v>       0.25110848       0.75027734       0.99882248 </v>
    <v>       0.24780096       0.74959146       0.50160105 </v>
    <v>       0.74979780       0.24975154       0.00080699 </v>
    <v>       0.75165347       0.74931411       0.00195056 </v>
    <v>       0.76459652       0.74088430       0.49922684 </v>
    <v>       0.25437311       0.24225475       0.24997893 </v>
    <v>       0.25203366       0.24805654       0.75036594 </v>
    <v>       0.24929924       0.75206139       0.24846389 </v>
    <v>       0.25258062       0.75332543       0.75207124 </v>
    <v>       0.75283539       0.25362798       0.75019216 </v>
    <v>       0.74335439       0.76067861       0.24966929 </v>
    <v>       0.74673384       0.75822364       0.74957717 </v>
    <v>       0.00004471       0.99979411       0.24983872 </v>
    <v>       0.01119265       0.49321675       0.25042821 </v>
    <v>       0.00466883       0.50947113       0.74935269 </v>
    <v>       0.49898281       0.49731416       0.24820375 </v>
    <v>       0.49890817       0.50339568       0.75128737 </v>
    <v>       0.99717876       0.00171570       0.49920277 </v>
    <v>       0.50138643       0.00227927       0.00013921 </v>
    <v>       0.25107828       0.24874323       0.00254722 </v>
    <v>       0.75058129       0.24914212       0.49980874 </v>
    <v>       0.74729850       0.24976239       0.24924578 </v>
    <v>       0.00168772       0.99939156       0.75061036 </v>
    <v>       0.49903512       0.99898330       0.25073287 </v>
    <v>       0.49575312       0.98901018       0.74976332 </v>
    <v>       0.11115344       0.14012855       0.25394714 </v>
    <v>       0.12545901       0.12975954       0.75005950 </v>
    <v>       0.10116016       0.64485107       0.25095000 </v>
    <v>       0.10815230       0.63752383       0.75008507 </v>
    <v>       0.61119262       0.13252194       0.25235192 </v>
    <v>       0.62244469       0.63154108       0.25243671 </v>
    <v>       0.60728088       0.64469158       0.75210946 </v>
    <v>       0.38563486       0.36210097       0.24743885 </v>
    <v>       0.38480132       0.36864599       0.74685763 </v>
    <v>       0.39012707       0.85824400       0.24837745 </v>
    <v>       0.39125863       0.85688173       0.75157684 </v>
    <v>       0.87796543       0.38289231       0.24984426 </v>
    <v>       0.89435378       0.85066069       0.24808730 </v>
    <v>       0.88921604       0.85587321       0.74764500 </v>
    <v>       0.36150172       0.10882355       0.25942348 </v>
    <v>       0.38399242       0.12299667       0.74244690 </v>
    <v>       0.36011528       0.61218135       0.25169042 </v>
    <v>       0.35894899       0.61007228       0.74847561 </v>
    <v>       0.86640024       0.11258840       0.24817445 </v>
    <v>       0.86788653       0.12526735       0.75030258 </v>
    <v>       0.85464984       0.60157031       0.74452617 </v>
    <v>       0.13788193       0.39020876       0.25151083 </v>
    <v>       0.12610599       0.37962163       0.75106796 </v>
    <v>       0.14301972       0.89112237       0.24849945 </v>
    <v>       0.14091045       0.88377155       0.75150957 </v>
    <v>       0.62922301       0.38439188       0.24869711 </v>
    <v>       0.63846223       0.38738785       0.74987495 </v>
    <v>       0.64237599       0.88683421       0.24466050 </v>
    <v>       0.64864242       0.90340540       0.75363616 </v>
    <v>       0.36347383       0.38782686       0.00071569 </v>
    <v>       0.36140984       0.38888165       0.50384905 </v>
    <v>       0.36373686       0.88321073       0.99727626 </v>
    <v>       0.37352702       0.88119452       0.50565020 </v>
    <v>       0.85995824       0.38957007       0.00243952 </v>
    <v>       0.85843029       0.39446980       0.49742485 </v>
    <v>       0.86300196       0.88636743       0.00527322 </v>
    <v>       0.84238881       0.89224955       0.49549879 </v>
    <v>       0.13703600       0.11199130       0.99671623 </v>
    <v>       0.14146687       0.11310920       0.49899684 </v>
    <v>       0.13561378       0.60958615       0.99463268 </v>
    <v>       0.13543678       0.60895939       0.50355124 </v>
    <v>       0.64090930       0.11533024       0.99906996 </v>
    <v>       0.63946631       0.10674125       0.49981788 </v>
    <v>       0.63730630       0.61346233       0.99958091 </v>
    <v>       0.62680546       0.63230807       0.49541910 </v>
    <v>       0.10973626       0.36398407       0.00460535 </v>
    <v>       0.10706656       0.36177513       0.49233221 </v>
    <v>       0.11385320       0.86157716       0.99912702 </v>
    <v>       0.11402786       0.86135715       0.50018905 </v>
    <v>       0.61225529       0.36445870       0.00201015 </v>
    <v>       0.61233882       0.36992893       0.49885462 </v>
    <v>       0.61681697       0.86170335       0.00636573 </v>
    <v>       0.38773375       0.13530237       0.00118848 </v>
    <v>       0.38962273       0.14108097       0.49747559 </v>
    <v>       0.38686596       0.63639183       0.99952597 </v>
    <v>       0.38190809       0.63426620       0.49969578 </v>
    <v>       0.88898262       0.13898458       0.99949059 </v>
    <v>       0.88971101       0.14139114       0.49989159 </v>
    <v>       0.88912694       0.63802244       0.99150888 </v>
    <v>       0.89256140       0.64145175       0.51484938 </v>
    <v>       0.00412074       0.00182779       0.12486522 </v>
    <v>       0.00040844       0.99728330       0.62431162 </v>
    <v>       0.99048887       0.51437235       0.12752704 </v>
    <v>       0.99216558       0.47839103       0.62794050 </v>
    <v>       0.49831420       0.00382704       0.12524008 </v>
    <v>       0.51871591       0.99317031       0.62331661 </v>
    <v>       0.49806079       0.50623130       0.12493622 </v>
    <v>       0.50434112       0.50475755       0.62470630 </v>
    <v>       0.00002295       0.99626949       0.37343679 </v>
    <v>       0.99594942       0.99645705       0.87616842 </v>
    <v>       0.98476908       0.51842435       0.37326066 </v>
    <v>       0.98548212       0.48224546       0.86961176 </v>
    <v>       0.51774128       0.97379916       0.38274882 </v>
    <v>       0.50796313       0.00948204       0.87307558 </v>
    <v>       0.49517734       0.49890548       0.37457739 </v>
    <v>       0.49896417       0.50002460       0.87506816 </v>
    <v>       0.25299123       0.25648675       0.37543058 </v>
    <v>       0.25464325       0.25081456       0.87336967 </v>
    <v>       0.24961957       0.75065663       0.37568655 </v>
    <v>       0.24990453       0.74524609       0.87436361 </v>
    <v>       0.74889654       0.25008010       0.37356307 </v>
    <v>       0.74925544       0.25428508       0.87246103 </v>
    <v>       0.76597592       0.73401112       0.37215175 </v>
    <v>       0.74960560       0.75282428       0.87508820 </v>
    <v>       0.24929920       0.24462195       0.12828426 </v>
    <v>       0.24685154       0.25328497       0.62252483 </v>
    <v>       0.24837345       0.74479769       0.12393483 </v>
    <v>       0.24815227       0.74833717       0.62651334 </v>
    <v>       0.75059709       0.24880571       0.12452426 </v>
    <v>       0.74588449       0.25285292       0.62858974 </v>
    <v>       0.76607692       0.72649475       0.12972249 </v>
    <v>       0.73108198       0.76269850       0.62062171 </v>
   </varray>
  </structure>
  <varray name="forces" >
   <v>       0.00055918       0.01096236       0.00678122 </v>
   <v>       0.00157645       0.01524747       0.00856093 </v>
   <v>      -0.01119702      -0.00402321      -0.00216784 </v>
   <v>       0.00120496      -0.00858847      -0.00808167 </v>
   <v>      -0.00905421       0.00026361       0.00233881 </v>
   <v>       0.00780798       0.00173373      -0.00296061 </v>
   <v>      -0.00106560       0.00330806      -0.00147729 </v>
   <v>       0.00309609      -0.00736543       0.00033748 </v>
   <v>       0.00307296       0.01496371       0.00381486 </v>
   <v>      -0.00096329      -0.00284757      -0.01288870 </v>
   <v>      -0.00971788       0.00044406       0.00523113 </v>
   <v>      -0.01014607      -0.01055391      -0.00374086 </v>
   <v>      -0.00626272       0.00297534      -0.00138697 </v>
   <v>       0.00698308      -0.00488410      -0.01077572 </v>
   <v>       0.00785182      -0.00650972       0.00177525 </v>
   <v>       0.00620625       0.00134914      -0.00457055 </v>
   <v>       0.00807096      -0.00193561       0.00787837 </v>
   <v>       0.00290026       0.00175931       0.00103381 </v>
   <v>       0.00010227       0.00030601       0.00983553 </v>
   <v>      -0.00367977       0.00302787      -0.00255601 </v>
   <v>       0.00430593      -0.00639332       0.00165973 </v>
   <v>      -0.00686319       0.00179910       0.00047697 </v>
   <v>       0.01181509       0.00661852       0.00545227 </v>
   <v>       0.00569988       0.00486508      -0.00012635 </v>
   <v>       0.00019386       0.00183606      -0.00184721 </v>
   <v>       0.00611253      -0.00141882      -0.00841400 </v>
   <v>      -0.00568121      -0.00049904       0.00672106 </v>
   <v>      -0.00073032       0.00617103      -0.00559774 </v>
   <v>      -0.00663522      -0.01018970      -0.00058476 </v>
   <v>      -0.00983238      -0.00901687      -0.00420080 </v>
   <v>       0.01281764       0.00973543      -0.00120795 </v>
   <v>      -0.00139295       0.00505155      -0.00457696 </v>
   <v>       0.01144374      -0.01680662      -0.00187071 </v>
   <v>      -0.02032143       0.03324334       0.00338588 </v>
   <v>      -0.00297390       0.00042679       0.01010493 </v>
   <v>       0.01459279      -0.00027817      -0.00380530 </v>
   <v>      -0.00151650       0.01122855      -0.00294782 </v>
   <v>      -0.00919029       0.01079022       0.00513774 </v>
   <v>      -0.00829690      -0.00876793      -0.00117619 </v>
   <v>      -0.01215697       0.00062764       0.00449332 </v>
   <v>       0.01579585      -0.01459488       0.00233738 </v>
   <v>      -0.00349484       0.00751230       0.00562390 </v>
   <v>       0.00393979      -0.01033424       0.00256344 </v>
   <v>       0.01705043      -0.00887029       0.00093454 </v>
   <v>       0.01761407       0.00064276       0.00188166 </v>
   <v>      -0.00372356      -0.01093835      -0.00406549 </v>
   <v>       0.01038407       0.00349397      -0.00651752 </v>
   <v>       0.00918872      -0.00537788      -0.00829941 </v>
   <v>      -0.01242006      -0.00230750      -0.01023904 </v>
   <v>       0.01423776      -0.02935254      -0.00670900 </v>
   <v>       0.00263917      -0.00432968       0.00582891 </v>
   <v>      -0.01056397       0.00350901       0.00170650 </v>
   <v>      -0.01288680      -0.01164087      -0.01137831 </v>
   <v>      -0.01543442       0.01035047      -0.02334952 </v>
   <v>       0.00466554       0.00504777       0.00717602 </v>
   <v>       0.01694469      -0.00191259       0.00247811 </v>
   <v>       0.01048992      -0.00146180      -0.00654123 </v>
   <v>      -0.00089842      -0.00524959       0.00938058 </v>
   <v>       0.00235722      -0.00857377      -0.00044838 </v>
   <v>       0.00044074       0.00000806      -0.00216729 </v>
   <v>      -0.00397213      -0.00734157       0.00317192 </v>
   <v>       0.00876825       0.00699972      -0.00061960 </v>
   <v>      -0.00078110       0.00029044      -0.00373667 </v>
   <v>       0.00162105       0.00654603      -0.00066617 </v>
   <v>      -0.00689829       0.00076565       0.00579591 </v>
   <v>       0.00717143       0.00674242       0.00461228 </v>
   <v>       0.00327173       0.00382653       0.00000286 </v>
   <v>      -0.00301285      -0.00055323       0.00047347 </v>
   <v>      -0.00476986       0.00036214       0.00025309 </v>
   <v>      -0.00707515       0.00747957      -0.00231883 </v>
   <v>      -0.00052468      -0.00508619       0.01027124 </v>
   <v>       0.00499147      -0.00078047      -0.00815612 </v>
   <v>      -0.00366560      -0.00550851      -0.01335849 </v>
   <v>       0.00031992      -0.01279636      -0.00342283 </v>
   <v>      -0.00556305       0.00145502      -0.00762065 </v>
   <v>       0.00344439       0.01489293      -0.00833552 </v>
   <v>       0.00093684       0.01652576      -0.00295574 </v>
   <v>       0.00955590       0.00540270      -0.00708842 </v>
   <v>      -0.00744341       0.00078223      -0.00173652 </v>
   <v>       0.00593783      -0.00535443       0.00174620 </v>
   <v>       0.00092942      -0.00246642       0.00260884 </v>
   <v>      -0.00684280       0.00363833       0.00251364 </v>
   <v>       0.00621231       0.00426623       0.00244505 </v>
   <v>       0.01044079       0.00286346       0.00163648 </v>
   <v>       0.00485667      -0.00321605       0.00292809 </v>
   <v>       0.00551913      -0.00561007      -0.00490853 </v>
   <v>       0.00681794      -0.00932937       0.00498887 </v>
   <v>      -0.00706244      -0.00063536       0.00237933 </v>
   <v>      -0.00037819      -0.00221852       0.00272388 </v>
   <v>      -0.00010679       0.00959354       0.00205476 </v>
   <v>      -0.00067036       0.00294401       0.00601730 </v>
   <v>      -0.00798352       0.01528161      -0.00125899 </v>
   <v>      -0.00658499       0.00360213      -0.00858296 </v>
   <v>      -0.00485864      -0.00464489       0.00624905 </v>
   <v>       0.00002163       0.00592945       0.00786325 </v>
   <v>       0.01344116       0.01187771       0.00215556 </v>
   <v>      -0.00496740       0.00489125      -0.00525903 </v>
   <v>       0.00157885      -0.00852093      -0.00134677 </v>
   <v>      -0.00501174      -0.00063119       0.00598804 </v>
   <v>       0.00498345       0.00436731       0.00902140 </v>
   <v>       0.00813813       0.00475128      -0.00150610 </v>
   <v>      -0.00383952       0.00575676      -0.00206888 </v>
   <v>       0.00487977       0.00716265      -0.00488536 </v>
   <v>       0.00087933      -0.00492138      -0.00383511 </v>
   <v>      -0.00391581       0.00045551      -0.00259573 </v>
   <v>      -0.00158693       0.00437084      -0.00306019 </v>
   <v>      -0.01437544      -0.00222398       0.00226591 </v>
   <v>      -0.00390680       0.00006828      -0.00615024 </v>
   <v>       0.00061011      -0.00799347      -0.00996215 </v>
   <v>       0.00600818      -0.00340257      -0.00151645 </v>
   <v>       0.01194976      -0.01013050       0.00067331 </v>
   <v>      -0.00477869       0.00473893      -0.00038622 </v>
   <v>      -0.00244156      -0.00035562      -0.00702559 </v>
   <v>      -0.00052984      -0.00602871       0.00122980 </v>
   <v>       0.00096019      -0.01041845      -0.00063077 </v>
   <v>      -0.01363047       0.01064832       0.00339735 </v>
   <v>       0.00163635      -0.00607476      -0.00199486 </v>
   <v>       0.00657966      -0.00287977      -0.00465821 </v>
   <v>       0.00616444      -0.00504066      -0.00008036 </v>
   <v>       0.00008354      -0.00027727      -0.00437109 </v>
   <v>      -0.00747432       0.00789548      -0.00219968 </v>
   <v>       0.00332595       0.00072645       0.00129911 </v>
   <v>      -0.00206732      -0.00535050      -0.00073872 </v>
   <v>      -0.00576517       0.00829662      -0.00549070 </v>
   <v>       0.00619234       0.00995612       0.00058968 </v>
   <v>      -0.00229747       0.00046875       0.00489796 </v>
   <v>      -0.00048248      -0.01802769       0.01126413 </v>
   <v>       0.00076821      -0.00349408       0.00420608 </v>
   <v>      -0.00542574       0.00000771      -0.00016358 </v>
   <v>      -0.00060323      -0.00502158       0.00389471 </v>
   <v>       0.00282182       0.00529313       0.00127803 </v>
   <v>       0.00101811       0.00304479       0.00535119 </v>
   <v>      -0.00638196      -0.00476998       0.00671098 </v>
   <v>      -0.00693417       0.00229023      -0.00518280 </v>
   <v>       0.00601613      -0.00791761      -0.00369264 </v>
   <v>       0.00379162      -0.00067380       0.01912302 </v>
   <v>      -0.00704899       0.00801447      -0.00322996 </v>
   <v>      -0.00543846      -0.00690466       0.00535300 </v>
   <v>      -0.00265379      -0.00252689      -0.00034784 </v>
   <v>      -0.00569513      -0.01135500      -0.00252076 </v>
   <v>       0.00990967       0.01208352       0.00948511 </v>
   <v>      -0.00327174       0.00513455      -0.00339507 </v>
   <v>      -0.00242442       0.00649254      -0.00324830 </v>
   <v>       0.00452464       0.00532175       0.00078740 </v>
   <v>       0.00144742       0.00146269       0.00614362 </v>
   <v>       0.00070587      -0.00452910       0.01015213 </v>
   <v>       0.00358122       0.00237529       0.00906302 </v>
   <v>      -0.00234354       0.00765436      -0.00252075 </v>
   <v>      -0.00980791      -0.00337114       0.00291340 </v>
   <v>      -0.00410400      -0.01268297      -0.00308507 </v>
   <v>      -0.00522056      -0.00335993       0.01056570 </v>
   <v>      -0.00326594      -0.00308487       0.00226255 </v>
   <v>      -0.00236628      -0.00312148      -0.00412585 </v>
   <v>       0.00185061      -0.00067180      -0.00501428 </v>
   <v>      -0.01208375       0.00665825       0.00812847 </v>
   <v>       0.00060941      -0.00542747       0.00386586 </v>
  </varray>
  <varray name="stress" >
   <v>      -0.00832619      -0.05409942      -0.01667484 </v>
   <v>      -0.05409905       0.01429480      -0.02390494 </v>
   <v>      -0.01667428      -0.02390455      -0.01508821 </v>
  </varray>
  <energy>
   <i name="e_fr_energy">  -1116.84310555 </i>
   <i name="e_wo_entrp">  -1116.84156145 </i>
   <i name="e_0_energy">     -0.00308820 </i>
  </energy>
  <time name="totalsc"> 1938.35 1941.50</time>
 </calculation>
 <calculation>
  <scstep>
   <time name="dav">  575.62  575.71</time>
   <time name="total">  582.80  582.97</time>
   <energy>
    <i name="alphaZ">   5628.30529461 </i>
    <i name="ewald"> -61020.49459041 </i>
    <i name="hartreedc"> -16510.64405378 </i>
    <i name="XCdc">   2962.10178377 </i>
    <i name="pawpsdc"> 112348.37476015 </i>
    <i name="pawaedc">-111247.60376186 </i>
    <i name="eentropy">     -0.00314875 </i>
    <i name="bandstr">  -7060.32726776 </i>
    <i name="atom">  73783.44779670 </i>
    <i name="e_fr_energy">  -1116.84318734 </i>
    <i name="e_wo_entrp">  -1116.84003859 </i>
    <i name="e_0_energy">  -1116.84161296 </i>
   </energy>
  </scstep>
  <scstep>
   <time name="diag">   64.90   64.90</time>
   <time name="diis">  104.80  104.80</time>
   <time name="orth">   33.26   33.26</time>
   <time name="total">  210.15  210.17</time>
   <energy>
    <i name="e_fr_energy">  -1116.84355928 </i>
    <i name="e_wo_entrp">  -1116.84045307 </i>
    <i name="e_0_energy">  -1116.84200617 </i>
   </energy>
  </scstep>
  <scstep>
   <time name="diag">   64.86   64.86</time>
   <time name="diis">   72.44   72.44</time>
   <time name="orth">   33.29   33.29</time>
   <time name="total">  177.81  177.82</time>
   <energy>
    <i name="e_fr_energy">  -1116.84353786 </i>
    <i name="e_wo_entrp">  -1116.84040325 </i>
    <i name="e_0_energy">  -1116.84197056 </i>
   </energy>
  </scstep>
  <scstep>
   <time name="diag">   64.87   64.90</time>
   <time name="diis">   64.26   64.26</time>
   <time name="orth">   33.30   33.30</time>
   <time name="total">  169.63  169.71</time>
   <energy>
    <i name="e_fr_energy">  -1116.84350966 </i>
    <i name="e_wo_entrp">  -1116.84039385 </i>
    <i name="e_0_energy">  -1116.84195175 </i>
   </energy>
  </scstep>
  <scstep>
   <time name="diag">   64.84   64.84</time>
   <time name="diis">   63.78   63.79</time>
   <time name="orth">   33.32   33.32</time>
   <time name="total">  169.12  169.20</time>
   <energy>
    <i name="e_fr_energy">  -1116.84349160 </i>
    <i name="e_wo_entrp">  -1116.84041098 </i>
    <i name="e_0_energy">  -1116.84195129 </i>
   </energy>
  </scstep>
  <scstep>
   <time name="diag">   64.82   64.84</time>
   <time name="diis">   62.43   62.45</time>
   <time name="orth">   33.28   33.28</time>
   <time name="total">  167.75  167.96</time>
   <energy>
    <i name="e_fr_energy">  -1116.84348964 </i>
    <i name="e_wo_entrp">  -1116.84037886 </i>
    <i name="e_0_energy">  -1116.84193425 </i>
   </energy>
  </scstep>
  <scstep>
   <time name="diag">   64.89   64.91</time>
   <time name="diis">   59.82   59.82</time>
   <time name="orth">   33.23   33.24</time>
   <time name="total">  165.19  165.30</time>
   <energy>
    <i name="e_fr_energy">  -1116.84348977 </i>
    <i name="e_wo_entrp">  -1116.84036948 </i>
    <i name="e_0_energy">  -1116.84192962 </i>
   </energy>
  </scstep>
  <scstep>
   <time name="diag">   64.83   64.83</time>
   <time name="diis">   56.02   56.05</time>
   <time name="orth">   33.28   33.28</time>
   <time name="total">  155.22  155.38</time>
   <energy>
    <i name="alphaZ">   5628.30529461 </i>
    <i name="ewald"> -61020.49459041 </i>
    <i name="hartreedc"> -16510.63247825 </i>
    <i name="XCdc">   2962.09440389 </i>
    <i name="pawpsdc"> 112341.67561055 </i>
    <i name="pawaedc">-111240.90968787 </i>
    <i name="eentropy">     -0.00311078 </i>
    <i name="bandstr">  -7060.32672828 </i>
    <i name="atom">  73783.44779670 </i>
    <i name="e_fr_energy">  -1116.84348983 </i>
    <i name="e_wo_entrp">  -1116.84037905 </i>
    <i name="e_0_energy">  -1116.84193444 </i>
   </energy>
  </scstep>
  <structure>
   <crystal>
    <varray name="basis" >
     <v>      11.22213389      -0.01923969      -0.01250643 </v>
     <v>      -0.01926396      11.22330355       0.00906198 </v>
     <v>      -0.01786222       0.01291540      15.92001890 </v>
    </varray>
    <i name="volume">   2005.10735419 </i>
    <varray name="rec_basis" >
     <v>       0.08910999       0.00015287       0.00009986 </v>
     <v>       0.00015268       0.08910065      -0.00007211 </v>
     <v>       0.00006992      -0.00005060       0.06281412 </v>
    </varray>
   </crystal>
   <varray name="positions" >
    <v>       0.99846305       0.24446441       0.12497085 </v>
    <v>       0.00653516       0.23682857       0.62029149 </v>
    <v>       0.00307073       0.75376373       0.11993666 </v>
    <v>       0.00782539       0.76273567       0.62790152 </v>
    <v>       0.50170732       0.24296585       0.12526030 </v>
    <v>       0.49346663       0.26077580       0.62130533 </v>
    <v>       0.49643862       0.75280203       0.12285923 </v>
    <v>       0.49349226       0.74545233       0.62674029 </v>
    <v>       0.99010592       0.24227250       0.37438407 </v>
    <v>       0.01313788       0.24192904       0.88037588 </v>
    <v>       0.00641541       0.75641357       0.37682452 </v>
    <v>       0.00034439       0.75850812       0.87587799 </v>
    <v>       0.50557293       0.25297419       0.37003660 </v>
    <v>       0.49137826       0.24987296       0.88340188 </v>
    <v>       0.48824003       0.74267529       0.37063129 </v>
    <v>       0.50226169       0.75435533       0.88084550 </v>
    <v>       0.25663152       0.00168145       0.12168463 </v>
    <v>       0.24133791       0.00082818       0.62644270 </v>
    <v>       0.25327683       0.49727396       0.12112604 </v>
    <v>       0.25070099       0.49856905       0.62592657 </v>
    <v>       0.74598172       0.00968747       0.12349531 </v>
    <v>       0.76210648       0.00364980       0.62317637 </v>
    <v>       0.74341040       0.49051552       0.12230388 </v>
    <v>       0.74310213       0.50082859       0.62038140 </v>
    <v>       0.24374166       0.99676209       0.37572044 </v>
    <v>       0.25433236       0.00456820       0.87737302 </v>
    <v>       0.25354483       0.50049369       0.37742494 </v>
    <v>       0.25245688       0.49565013       0.87692116 </v>
    <v>       0.75104978       0.01691064       0.37237254 </v>
    <v>       0.75374095       0.99822841       0.88176833 </v>
    <v>       0.74140098       0.48585254       0.37447213 </v>
    <v>       0.74717467       0.50732993       0.87904631 </v>
    <v>       0.00247388       0.00113519       0.99965154 </v>
    <v>       0.99842213       0.49862208       0.99992528 </v>
    <v>       0.99725703       0.49476363       0.50013438 </v>
    <v>       0.49410474       0.01322159       0.50126568 </v>
    <v>       0.49839012       0.49922908       0.00042235 </v>
    <v>       0.49782871       0.50049460       0.49918983 </v>
    <v>       0.24428863       0.25159365       0.49731742 </v>
    <v>       0.25105624       0.75027994       0.99883606 </v>
    <v>       0.24786877       0.74952883       0.50160822 </v>
    <v>       0.74978286       0.24978379       0.00082400 </v>
    <v>       0.75167035       0.74926970       0.00195837 </v>
    <v>       0.76466976       0.74084629       0.49922975 </v>
    <v>       0.25444885       0.24225764       0.24998469 </v>
    <v>       0.25201756       0.24800951       0.75035363 </v>
    <v>       0.24934388       0.75207651       0.24844416 </v>
    <v>       0.25262004       0.75330241       0.75204613 </v>
    <v>       0.75278193       0.25361800       0.75016109 </v>
    <v>       0.74341535       0.76055257       0.24964908 </v>
    <v>       0.74674519       0.75820503       0.74959485 </v>
    <v>      -0.00000067       0.99980911       0.24984385 </v>
    <v>       0.01113711       0.49316666       0.25039372 </v>
    <v>       0.00460244       0.50951559       0.74928186 </v>
    <v>       0.49900294       0.49733586       0.24822550 </v>
    <v>       0.49898101       0.50338757       0.75129494 </v>
    <v>       0.99722381       0.00170952       0.49918299 </v>
    <v>       0.50138258       0.00225666       0.00016765 </v>
    <v>       0.25108835       0.24870640       0.00254589 </v>
    <v>       0.75058317       0.24914217       0.49980217 </v>
    <v>       0.74728139       0.24973079       0.24925539 </v>
    <v>       0.00172546       0.99942172       0.75060850 </v>
    <v>       0.49903175       0.99898455       0.25072154 </v>
    <v>       0.49576013       0.98903833       0.74976129 </v>
    <v>       0.11112382       0.14013177       0.25396468 </v>
    <v>       0.12548991       0.12978856       0.75007348 </v>
    <v>       0.10117425       0.64486754       0.25095001 </v>
    <v>       0.10813935       0.63752143       0.75008649 </v>
    <v>       0.61117212       0.13252346       0.25235267 </v>
    <v>       0.62241432       0.63157319       0.25242964 </v>
    <v>       0.60727863       0.64466967       0.75214060 </v>
    <v>       0.38565627       0.36209768       0.24741415 </v>
    <v>       0.38478545       0.36862233       0.74681716 </v>
    <v>       0.39012834       0.85818901       0.24836711 </v>
    <v>       0.39123469       0.85688797       0.75155373 </v>
    <v>       0.87798030       0.38295638       0.24981897 </v>
    <v>       0.89435792       0.85073175       0.24807831 </v>
    <v>       0.88925712       0.85589653       0.74762353 </v>
    <v>       0.36146972       0.10882686       0.25941819 </v>
    <v>       0.38401791       0.12297369       0.74245223 </v>
    <v>       0.36011927       0.61217074       0.25169834 </v>
    <v>       0.35891961       0.61008786       0.74848320 </v>
    <v>       0.86642699       0.11260677       0.24818187 </v>
    <v>       0.86793145       0.12527973       0.75030757 </v>
    <v>       0.85467071       0.60155651       0.74453506 </v>
    <v>       0.13790559       0.39018471       0.25149598 </v>
    <v>       0.12613525       0.37958156       0.75108313 </v>
    <v>       0.14298936       0.89111958       0.24850664 </v>
    <v>       0.14090882       0.88376200       0.75151783 </v>
    <v>       0.62922263       0.38443311       0.24870331 </v>
    <v>       0.63845940       0.38740048       0.74989317 </v>
    <v>       0.64234178       0.88689984       0.24465662 </v>
    <v>       0.64861410       0.90342086       0.75361012 </v>
    <v>       0.36345293       0.38780684       0.00073463 </v>
    <v>       0.36141002       0.38890711       0.50387286 </v>
    <v>       0.36379474       0.88326188       0.99728281 </v>
    <v>       0.37350567       0.88121553       0.50563423 </v>
    <v>       0.85996496       0.38953346       0.00243547 </v>
    <v>       0.85840877       0.39446702       0.49744298 </v>
    <v>       0.86302345       0.88638621       0.00530056 </v>
    <v>       0.84242382       0.89227004       0.49549424 </v>
    <v>       0.13701953       0.11201602       0.99670993 </v>
    <v>       0.14148787       0.11314005       0.49898203 </v>
    <v>       0.13561751       0.60956501       0.99462108 </v>
    <v>       0.13541994       0.60896132       0.50354336 </v>
    <v>       0.64090250       0.11534903       0.99906067 </v>
    <v>       0.63940451       0.10673158       0.49982471 </v>
    <v>       0.63728948       0.61346262       0.99956226 </v>
    <v>       0.62680798       0.63227375       0.49538893 </v>
    <v>       0.10976205       0.36396949       0.00460078 </v>
    <v>       0.10711786       0.36173167       0.49233432 </v>
    <v>       0.11383269       0.86159750       0.99912582 </v>
    <v>       0.11401733       0.86135563       0.50016775 </v>
    <v>       0.61225298       0.36443277       0.00201389 </v>
    <v>       0.61234287       0.36988416       0.49885274 </v>
    <v>       0.61675847       0.86174901       0.00637595 </v>
    <v>       0.38774073       0.13527628       0.00118246 </v>
    <v>       0.38965097       0.14106865       0.49746151 </v>
    <v>       0.38689242       0.63637020       0.99952576 </v>
    <v>       0.38190843       0.63426503       0.49968254 </v>
    <v>       0.88895053       0.13901847       0.99948388 </v>
    <v>       0.88972532       0.14139429       0.49989553 </v>
    <v>       0.88911802       0.63799942       0.99150664 </v>
    <v>       0.89253665       0.64148739       0.51483270 </v>
    <v>       0.00414743       0.00187063       0.12486700 </v>
    <v>       0.00039859       0.99728528       0.62432646 </v>
    <v>       0.99048672       0.51429481       0.12756121 </v>
    <v>       0.99216888       0.47837600       0.62795326 </v>
    <v>       0.49829088       0.00382704       0.12523956 </v>
    <v>       0.51871330       0.99314871       0.62332843 </v>
    <v>       0.49807297       0.50625407       0.12494009 </v>
    <v>       0.50434555       0.50477062       0.62472251 </v>
    <v>      -0.00000449       0.99624892       0.37345712 </v>
    <v>       0.99591960       0.99646687       0.87615268 </v>
    <v>       0.98479487       0.51839038       0.37324951 </v>
    <v>       0.98549850       0.48224253       0.86966973 </v>
    <v>       0.51771102       0.97383357       0.38273899 </v>
    <v>       0.50793973       0.00945231       0.87309180 </v>
    <v>       0.49516592       0.49889460       0.37457633 </v>
    <v>       0.49893959       0.49997576       0.87506053 </v>
    <v>       0.25303397       0.25653872       0.37545932 </v>
    <v>       0.25462920       0.25083662       0.87335936 </v>
    <v>       0.24960917       0.75068454       0.37567669 </v>
    <v>       0.24992402       0.74526899       0.87436600 </v>
    <v>       0.74890280       0.25008638       0.37358169 </v>
    <v>       0.74925849       0.25426558       0.87249180 </v>
    <v>       0.76599138       0.73402132       0.37217922 </v>
    <v>       0.74959557       0.75285717       0.87508054 </v>
    <v>       0.24925703       0.24460737       0.12829307 </v>
    <v>       0.24683379       0.25323043       0.62251550 </v>
    <v>       0.24835103       0.74478317       0.12396684 </v>
    <v>       0.24813822       0.74832388       0.62652019 </v>
    <v>       0.75058687       0.24879229       0.12451176 </v>
    <v>       0.74589242       0.25285006       0.62857455 </v>
    <v>       0.76602507       0.72652325       0.12974706 </v>
    <v>       0.73108458       0.76267516       0.62063344 </v>
   </varray>
  </structure>
  <varray name="forces" >
   <v>       0.00245798       0.00731853      -0.00082689 </v>
   <v>       0.00110320       0.00547951       0.00722165 </v>
   <v>      -0.00127759       0.00179439       0.00737845 </v>
   <v>       0.00449400       0.00184100      -0.00627470 </v>
   <v>      -0.00520995       0.00244634      -0.00149837 </v>
   <v>       0.00264490       0.00129266      -0.00632562 </v>
   <v>      -0.00205894       0.00520590       0.00001256 </v>
   <v>       0.00390506      -0.00268106       0.00204256 </v>
   <v>       0.00213728       0.00862468       0.00259362 </v>
   <v>      -0.00188507       0.00050562      -0.00445843 </v>
   <v>       0.00204606       0.00311111      -0.00054773 </v>
   <v>      -0.00343929      -0.00377784      -0.01073759 </v>
   <v>      -0.00386752       0.00366503       0.00169033 </v>
   <v>       0.00410674      -0.00197473      -0.00545940 </v>
   <v>       0.00577973       0.00018644      -0.00254427 </v>
   <v>       0.00080875       0.00461023      -0.00219249 </v>
   <v>       0.00363179       0.00191244       0.00827980 </v>
   <v>       0.00389504       0.00065406      -0.00135327 </v>
   <v>       0.00099980      -0.00586551       0.00569370 </v>
   <v>      -0.00032439      -0.00330183       0.00203919 </v>
   <v>       0.00319326      -0.00160043      -0.00128193 </v>
   <v>      -0.00257270       0.00031976       0.00018435 </v>
   <v>       0.00205739      -0.00307544       0.00176844 </v>
   <v>      -0.00341906       0.00283184      -0.00464329 </v>
   <v>      -0.00103141      -0.00113463      -0.00117679 </v>
   <v>       0.00523470      -0.00143830      -0.00592498 </v>
   <v>      -0.00895599      -0.00137906       0.00144893 </v>
   <v>      -0.00338777      -0.00096013      -0.00438216 </v>
   <v>      -0.00665567      -0.00878461      -0.00205419 </v>
   <v>      -0.00701554      -0.00015769       0.00222552 </v>
   <v>       0.00693038       0.00381441       0.00206536 </v>
   <v>      -0.00104573      -0.00440598      -0.00275640 </v>
   <v>       0.00049010       0.01991343       0.00167024 </v>
   <v>       0.02339975      -0.04548012      -0.01073540 </v>
   <v>       0.00683007      -0.00996620      -0.01057962 </v>
   <v>      -0.00787698       0.00191597      -0.00078089 </v>
   <v>      -0.00512850      -0.02482262       0.00957779 </v>
   <v>       0.00579141      -0.01338934      -0.00250879 </v>
   <v>       0.02010907      -0.00079825       0.00364668 </v>
   <v>       0.00732769      -0.00223565       0.00031506 </v>
   <v>      -0.01021676       0.01998647      -0.01087924 </v>
   <v>       0.00181552      -0.01995817      -0.00190828 </v>
   <v>      -0.01399538       0.01382519      -0.00041497 </v>
   <v>      -0.01174677       0.01737763       0.00222418 </v>
   <v>      -0.01429680       0.00268638      -0.00181384 </v>
   <v>       0.00415607       0.00397762       0.00997153 </v>
   <v>      -0.01440054      -0.00437611       0.01026376 </v>
   <v>       0.00377990       0.00152979       0.00146349 </v>
   <v>       0.00448668      -0.01165386       0.00651100 </v>
   <v>      -0.03506630       0.04499382       0.00641774 </v>
   <v>       0.00558737       0.01553722      -0.00404561 </v>
   <v>       0.00947778       0.00649356       0.00498877 </v>
   <v>       0.02567715       0.00674984       0.00889854 </v>
   <v>       0.01199404      -0.00714017       0.03357710 </v>
   <v>      -0.00507892      -0.00644136      -0.00828263 </v>
   <v>      -0.00684480      -0.01159482       0.00161453 </v>
   <v>       0.00528805       0.00143379      -0.00018320 </v>
   <v>       0.00349225       0.00481765       0.00674320 </v>
   <v>      -0.00584426       0.00150988      -0.00213086 </v>
   <v>      -0.00112520      -0.00220111      -0.00610430 </v>
   <v>      -0.00648395      -0.00793833      -0.00079116 </v>
   <v>       0.00656051       0.00281072      -0.00318094 </v>
   <v>       0.00304707      -0.00259119      -0.00173310 </v>
   <v>      -0.00218364       0.00208914      -0.00193488 </v>
   <v>       0.00108023       0.00590782       0.00830753 </v>
   <v>       0.00021660      -0.00345374       0.00317369 </v>
   <v>      -0.00387225      -0.00370512      -0.00187172 </v>
   <v>      -0.00740706      -0.00281254      -0.00157356 </v>
[...]
       <r>   -16.3039     0.0000    32.0000 </r>
       <r>   -16.1513     0.0000    32.0000 </r>
       <r>   -15.9987     0.0000    32.0000 </r>
       <r>   -15.8461     0.0000    32.0000 </r>
       <r>   -15.6935     0.0000    32.0000 </r>
       <r>   -15.5409     0.0000    32.0000 </r>
       <r>   -15.3883     0.0000    32.0000 </r>
       <r>   -15.2357     0.4675    32.0713 </r>
       <r>   -15.0831    15.9099    34.4992 </r>
       <r>   -14.9305    35.8760    39.9739 </r>
       <r>   -14.7779    47.7197    47.2561 </r>
       <r>   -14.6253    44.2012    54.0012 </r>
       <r>   -14.4727    31.4897    58.8066 </r>
       <r>   -14.3201    36.3174    64.3487 </r>
       <r>   -14.1675    54.6721    72.6918 </r>
       <r>   -14.0149   106.1038    88.8834 </r>
       <r>   -13.8623   126.6060   108.2037 </r>
       <r>   -13.7097    68.5068   118.6580 </r>
       <r>   -13.5571    27.4397   122.8453 </r>
       <r>   -13.4045     7.5660   123.9999 </r>
       <r>   -13.2519     0.0007   124.0000 </r>
       <r>   -13.0993     0.0000   124.0000 </r>
       <r>   -12.9467     0.0000   124.0000 </r>
       <r>   -12.7941     0.0731   124.0112 </r>
       <r>   -12.6415    16.6495   126.5519 </r>
       <r>   -12.4889    96.9548   141.3474 </r>
       <r>   -12.3363   159.9238   165.7520 </r>
       <r>   -12.1837   132.6738   185.9983 </r>
       <r>   -12.0311   121.3567   204.5175 </r>
       <r>   -11.8785    76.5486   216.1990 </r>
       <r>   -11.7259    24.6064   219.9539 </r>
       <r>   -11.5733     0.3019   220.0000 </r>
       <r>   -11.4207     0.0000   220.0000 </r>
       <r>   -11.2681     0.0000   220.0000 </r>
       <r>   -11.1155     0.0000   220.0000 </r>
       <r>   -10.9629     0.0000   220.0000 </r>
       <r>   -10.8103     0.0000   220.0000 </r>
       <r>   -10.6577     0.0000   220.0000 </r>
       <r>   -10.5051     0.0000   220.0000 </r>
       <r>   -10.3525     0.0000   220.0000 </r>
       <r>   -10.1999     0.0000   220.0000 </r>
       <r>   -10.0473     0.0000   220.0000 </r>
       <r>    -9.8947     0.0000   220.0000 </r>
       <r>    -9.7421     0.0000   220.0000 </r>
       <r>    -9.5895     0.0000   220.0000 </r>
       <r>    -9.4369     0.0000   220.0000 </r>
       <r>    -9.2843     0.0000   220.0000 </r>
       <r>    -9.1317     0.0000   220.0000 </r>
       <r>    -8.9791     0.0000   220.0000 </r>
       <r>    -8.8265     0.0000   220.0000 </r>
       <r>    -8.6739     0.0000   220.0000 </r>
       <r>    -8.5213     0.0000   220.0000 </r>
       <r>    -8.3687     0.0000   220.0000 </r>
       <r>    -8.2160     0.0000   220.0000 </r>
       <r>    -8.0634     0.0000   220.0000 </r>
       <r>    -7.9108     0.0000   220.0000 </r>
       <r>    -7.7582     0.0000   220.0000 </r>
       <r>    -7.6056     0.0000   220.0000 </r>
       <r>    -7.4530     0.0000   220.0000 </r>
       <r>    -7.3004     0.0000   220.0000 </r>
       <r>    -7.1478     0.0000   220.0000 </r>
       <r>    -6.9952     0.0000   220.0000 </r>
       <r>    -6.8426     0.0000   220.0000 </r>
       <r>    -6.6900     0.0000   220.0000 </r>
       <r>    -6.5374     0.0000   220.0000 </r>
       <r>    -6.3848     0.0000   220.0000 </r>
       <r>    -6.2322     0.0000   220.0000 </r>
       <r>    -6.0796     0.0000   220.0000 </r>
       <r>    -5.9270     0.0000   220.0000 </r>
       <r>    -5.7744     0.0000   220.0000 </r>
       <r>    -5.6218     0.0000   220.0000 </r>
       <r>    -5.4692     0.0000   220.0000 </r>
       <r>    -5.3166     0.0000   220.0000 </r>
       <r>    -5.1640     0.0000   220.0000 </r>
       <r>    -5.0114     0.0000   220.0000 </r>
       <r>    -4.8588     0.0000   220.0000 </r>
       <r>    -4.7062     0.0000   220.0000 </r>
       <r>    -4.5536     0.0000   220.0000 </r>
       <r>    -4.4010     0.0000   220.0000 </r>
       <r>    -4.2484     0.0000   220.0000 </r>
       <r>    -4.0958     0.0000   220.0000 </r>
       <r>    -3.9432     0.0000   220.0000 </r>
       <r>    -3.7906     0.0000   220.0000 </r>
       <r>    -3.6380     0.0000   220.0000 </r>
       <r>    -3.4854     0.0000   220.0000 </r>
       <r>    -3.3328     0.0000   220.0000 </r>
       <r>    -3.1802     0.0000   220.0000 </r>
       <r>    -3.0276     0.0000   220.0000 </r>
       <r>    -2.8750     0.0000   220.0000 </r>
       <r>    -2.7224     0.0000   220.0000 </r>
       <r>    -2.5698     0.0270   220.0041 </r>
       <r>    -2.4172     6.4394   220.9868 </r>
       <r>    -2.2646    10.0576   222.5216 </r>
       <r>    -2.1120    19.6002   225.5126 </r>
       <r>    -1.9594    25.4845   229.4016 </r>
       <r>    -1.8068    32.4121   234.3477 </r>
       <r>    -1.6542    50.7019   242.0849 </r>
       <r>    -1.5016    54.7474   250.4395 </r>
       <r>    -1.3490    59.2814   259.4859 </r>
       <r>    -1.1964    67.7641   269.8268 </r>
       <r>    -1.0438    70.9598   280.6554 </r>
       <r>    -0.8912    77.3061   292.4525 </r>
       <r>    -0.7386    85.1177   305.4416 </r>
       <r>    -0.5860    96.2187   320.1247 </r>
       <r>    -0.4334   111.3788   337.1213 </r>
       <r>    -0.2808    75.5257   348.6467 </r>
       <r>    -0.1282    55.0791   357.0518 </r>
       <r>     0.0244    51.0742   364.8458 </r>
       <r>     0.1770    49.2072   372.3549 </r>
       <r>     0.3296    47.5055   379.6043 </r>
       <r>     0.4822    48.9196   387.0696 </r>
       <r>     0.6349    54.5130   395.3883 </r>
       <r>     0.7875    49.6467   402.9645 </r>
       <r>     0.9401    49.0530   410.4501 </r>
       <r>     1.0927    61.8949   419.8954 </r>
       <r>     1.2453    76.8455   431.6221 </r>
       <r>     1.3979    85.5697   444.6802 </r>
       <r>     1.5505    86.2623   457.8440 </r>
       <r>     1.7031    74.0852   469.1495 </r>
       <r>     1.8557    73.8790   480.4236 </r>
       <r>     2.0083    44.5853   487.2273 </r>
       <r>     2.1609    29.9354   491.7955 </r>
       <r>     2.3135    25.0874   495.6239 </r>
       <r>     2.4661     2.4644   496.0000 </r>
       <r>     2.6187     0.0000   496.0000 </r>
       <r>     2.7713     0.0000   496.0000 </r>
       <r>     2.9239     0.0000   496.0000 </r>
       <r>     3.0765     0.0000   496.0000 </r>
       <r>     3.2291     0.0000   496.0000 </r>
       <r>     3.3817     0.0000   496.0000 </r>
       <r>     3.5343     0.0000   496.0000 </r>
       <r>     3.6869     0.0000   496.0000 </r>
       <r>     3.8395     0.0000   496.0000 </r>
       <r>     3.9921     0.0000   496.0000 </r>
       <r>     4.1447     0.0050   496.0008 </r>
       <r>     4.2973     3.7933   496.5796 </r>
       <r>     4.4499     4.4082   497.2523 </r>
       <r>     4.6025    19.3815   500.2100 </r>
       <r>     4.7551    43.2674   506.8126 </r>
       <r>     4.9077    29.7916   511.3589 </r>
       <r>     5.0603    40.8013   517.5852 </r>
       <r>     5.2129    64.1860   527.3801 </r>
       <r>     5.3655    65.6758   537.4024 </r>
       <r>     5.5181    57.2168   546.1338 </r>
       <r>     5.6707    58.7033   555.0920 </r>
       <r>     5.8233    75.6811   566.6411 </r>
       <r>     5.9759    75.6366   578.1833 </r>
       <r>     6.1285    82.9910   590.8479 </r>
       <r>     6.2811    74.8402   602.2687 </r>
       <r>     6.4337    57.5481   611.0506 </r>
       <r>     6.5863    23.2300   614.5955 </r>
       <r>     6.7389    20.6326   617.7441 </r>
       <r>     6.8915    20.2569   620.8353 </r>
       <r>     7.0441    19.0294   623.7393 </r>
       <r>     7.1967    17.7784   626.4523 </r>
       <r>     7.3493    17.0652   629.0564 </r>
       <r>     7.5019    15.0802   631.3577 </r>
       <r>     7.6545    14.9609   633.6408 </r>
       <r>     7.8071    15.5111   636.0078 </r>
       <r>     7.9597    17.1087   638.6186 </r>
       <r>     8.1123    21.6408   641.9210 </r>
       <r>     8.2649    24.7115   645.6920 </r>
       <r>     8.4175    26.8983   649.7968 </r>
       <r>     8.5701    21.5727   653.0888 </r>
       <r>     8.7227    27.4681   657.2805 </r>
       <r>     8.8753    28.1752   661.5801 </r>
       <r>     9.0279    32.3385   666.5150 </r>
       <r>     9.1805    37.7717   672.2790 </r>
       <r>     9.3331    38.8586   678.2089 </r>
       <r>     9.4858    43.5711   684.8579 </r>
       <r>     9.6384    46.8670   692.0099 </r>
       <r>     9.7910    50.7707   699.7576 </r>
       <r>     9.9436    60.8012   709.0360 </r>
       <r>    10.0962    69.7091   719.6737 </r>
       <r>    10.2488    64.3395   729.4920 </r>
       <r>    10.4014    56.5388   738.1199 </r>
       <r>    10.5540    56.5040   746.7425 </r>
       <r>    10.7066    61.6845   756.1557 </r>
       <r>    10.8592    57.7641   764.9706 </r>
       <r>    11.0118    19.8399   767.9982 </r>
       <r>    11.1644     0.0119   768.0000 </r>
       <r>    11.3170     0.0000   768.0000 </r>
       <r>    11.4696     0.0000   768.0000 </r>
       <r>    11.6222     0.0000   768.0000 </r>
       <r>    11.7748     0.0000   768.0000 </r>
       <r>    11.9274     0.0000   768.0000 </r>
       <r>    12.0800     0.0000   768.0000 </r>
       <r>    12.2326     0.0000   768.0000 </r>
       <r>    12.3852     0.0000   768.0000 </r>
       <r>    12.5378     0.0000   768.0000 </r>
       <r>    12.6904     0.0000   768.0000 </r>
       <r>    12.8430     0.0000   768.0000 </r>
       <r>    12.9956     0.0000   768.0000 </r>
      </set>
     </set>
    </array>
   </total>
  </dos>
 </calculation>
 <structure name="finalpos" >
  <crystal>
   <varray name="basis" >
    <v>      11.22206795      -0.01914500      -0.01261109 </v>
    <v>      -0.01916965      11.22312687       0.00895274 </v>
    <v>      -0.01801082       0.01275991      15.91994910 </v>
   </varray>
   <i name="volume">   2005.05526246 </i>
   <varray name="rec_basis" >
    <v>       0.08911051       0.00015212       0.00010069 </v>
    <v>       0.00015193       0.08910204      -0.00007124 </v>
    <v>       0.00007050      -0.00004999       0.06281439 </v>
   </varray>
  </crystal>
  <varray name="positions" >
   <v>       0.99847596       0.24457435       0.12498957 </v>
   <v>       0.00654660       0.23694190       0.62035240 </v>
   <v>       0.00300236       0.75375715       0.11996330 </v>
   <v>       0.00786723       0.76270317       0.62784130 </v>
   <v>       0.50163043       0.24298496       0.12525901 </v>
   <v>       0.49353128       0.26079962       0.62126259 </v>
   <v>       0.49641789       0.75284500       0.12284766 </v>
   <v>       0.49353797       0.74538791       0.62675324 </v>
   <v>       0.99013452       0.24241664       0.37441643 </v>
   <v>       0.01311879       0.24191671       0.88031030 </v>
   <v>       0.00638054       0.75643122       0.37683348 </v>
   <v>       0.00027040       0.75842428       0.87581786 </v>
   <v>       0.50552149       0.25302350       0.37003993 </v>
   <v>       0.49144531       0.24984144       0.88332781 </v>
   <v>       0.48831935       0.74263874       0.37062441 </v>
   <v>       0.50229287       0.75438339       0.88082745 </v>
   <v>       0.25670101       0.00167281       0.12175369 </v>
   <v>       0.24138186       0.00083452       0.62643837 </v>
   <v>       0.25328241       0.49723621       0.12117945 </v>
   <v>       0.25067564       0.49856585       0.62592924 </v>
   <v>       0.74604010       0.00964187       0.12349370 </v>
   <v>       0.76205949       0.00365981       0.62317896 </v>
   <v>       0.74348625       0.49053726       0.12233324 </v>
   <v>       0.74311206       0.50087487       0.62035825 </v>
   <v>       0.24373761       0.99675837       0.37570754 </v>
   <v>       0.25440574       0.00454132       0.87732289 </v>
   <v>       0.25345293       0.50048500       0.37746356 </v>
   <v>       0.25243541       0.49567867       0.87688051 </v>
   <v>       0.75098652       0.01682073       0.37236448 </v>
   <v>       0.75363918       0.99817507       0.88176550 </v>
   <v>       0.74151200       0.48593449       0.37447982 </v>
   <v>       0.74715458       0.50733029       0.87901756 </v>
   <v>       0.00251348       0.00114037       0.99964508 </v>
   <v>       0.99844953       0.49854477       0.99990833 </v>
   <v>       0.99730339       0.49470802       0.50013100 </v>
   <v>       0.49410724       0.01320678       0.50124590 </v>
   <v>       0.49835363       0.49912912       0.00045227 </v>
   <v>       0.49783349       0.50047552       0.49918146 </v>
   <v>       0.24438495       0.25155235       0.49733682 </v>
   <v>       0.25106861       0.75025653       0.99884746 </v>
   <v>       0.24785879       0.74960046       0.50157019 </v>
   <v>       0.74980763       0.24969579       0.00083569 </v>
   <v>       0.75159384       0.74930874       0.00197213 </v>
   <v>       0.76466845       0.74086363       0.49924470 </v>
   <v>       0.25444664       0.24227384       0.24998893 </v>
   <v>       0.25203603       0.24799436       0.75035306 </v>
   <v>       0.24928491       0.75204734       0.24846203 </v>
   <v>       0.25267051       0.75329408       0.75203543 </v>
   <v>       0.75275563       0.25353770       0.75015823 </v>
   <v>       0.74333277       0.76062991       0.24965981 </v>
   <v>       0.74678436       0.75827526       0.74959921 </v>
   <v>       0.00000147       0.99987093       0.24986135 </v>
   <v>       0.01121578       0.49315396       0.25040475 </v>
   <v>       0.00460264       0.50952097       0.74936163 </v>
   <v>       0.49900239       0.49732902       0.24821590 </v>
   <v>       0.49901431       0.50330590       0.75132280 </v>
   <v>       0.99730467       0.00172849       0.49915881 </v>
   <v>       0.50138918       0.00225129       0.00022975 </v>
   <v>       0.25105634       0.24867513       0.00252813 </v>
   <v>       0.75058478       0.24913275       0.49976461 </v>
   <v>       0.74721985       0.24965685       0.24926574 </v>
   <v>       0.00181889       0.99945992       0.75059113 </v>
   <v>       0.49903668       0.99896918       0.25070067 </v>
   <v>       0.49575891       0.98906643       0.74974633 </v>
   <v>       0.11110744       0.14019116       0.25403913 </v>
   <v>       0.12552518       0.12978392       0.75010623 </v>
   <v>       0.10116107       0.64485561       0.25094079 </v>
   <v>       0.10807922       0.63751061       0.75008392 </v>
   <v>       0.61111148       0.13255397       0.25235779 </v>
   <v>       0.62238288       0.63167492       0.25241689 </v>
   <v>       0.60732249       0.64462679       0.75221461 </v>
   <v>       0.38571267       0.36206964       0.24735127 </v>
   <v>       0.38480976       0.36859601       0.74670576 </v>
   <v>       0.39016291       0.85811173       0.24833913 </v>
   <v>       0.39121805       0.85692100       0.75149501 </v>
   <v>       0.87791528       0.38307309       0.24975805 </v>
   <v>       0.89429024       0.85083427       0.24804050 </v>
   <v>       0.88926671       0.85586692       0.74757033 </v>
   <v>       0.36142519       0.10878600       0.25940244 </v>
   <v>       0.38408502       0.12291764       0.74246688 </v>
   <v>       0.36013979       0.61213265       0.25172589 </v>
   <v>       0.35890408       0.61009147       0.74850023 </v>
   <v>       0.86643682       0.11269470       0.24819807 </v>
   <v>       0.86800159       0.12538285       0.75031438 </v>
   <v>       0.85466027       0.60155305       0.74455733 </v>
   <v>       0.13793502       0.39014781       0.25146870 </v>
   <v>       0.12611447       0.37957071       0.75109052 </v>
   <v>       0.14293353       0.89110699       0.24852051 </v>
   <v>       0.14091870       0.88372887       0.75153362 </v>
   <v>       0.62927545       0.38453423       0.24872797 </v>
   <v>       0.63847313       0.38741930       0.74992363 </v>
   <v>       0.64240723       0.88686707       0.24465640 </v>
   <v>       0.64859348       0.90340057       0.75356231 </v>
   <v>       0.36346969       0.38778867       0.00077061 </v>
   <v>       0.36140809       0.38899429       0.50395761 </v>
   <v>       0.36382072       0.88327242       0.99731767 </v>
   <v>       0.37345663       0.88123443       0.50560537 </v>
   <v>       0.85999186       0.38954123       0.00244113 </v>
   <v>       0.85839712       0.39451151       0.49750606 </v>
   <v>       0.86302085       0.88632069       0.00537927 </v>
   <v>       0.84248388       0.89225310       0.49550098 </v>
   <v>       0.13700010       0.11201720       0.99667529 </v>
   <v>       0.14150932       0.11315939       0.49892915 </v>
   <v>       0.13562500       0.60959234       0.99461265 </v>
   <v>       0.13537593       0.60894438       0.50354160 </v>
   <v>       0.64084106       0.11535524       0.99904009 </v>
   <v>       0.63934222       0.10673894       0.49984477 </v>
   <v>       0.63731267       0.61352096       0.99951582 </v>
   <v>       0.62685948       0.63220985       0.49531483 </v>
   <v>       0.10976523       0.36402803       0.00459764 </v>
   <v>       0.10712825       0.36172376       0.49236560 </v>
   <v>       0.11381052       0.86157837       0.99912527 </v>
   <v>       0.11401898       0.86131625       0.50013033 </v>
   <v>       0.61219600       0.36444217       0.00201837 </v>
   <v>       0.61230464       0.36983278       0.49885516 </v>
   <v>       0.61671761       0.86177160       0.00640095 </v>
   <v>       0.38774355       0.13522311       0.00116529 </v>
   <v>       0.38970784       0.14104672       0.49743441 </v>
   <v>       0.38690432       0.63638859       0.99951808 </v>
   <v>       0.38191406       0.63427439       0.49965583 </v>
   <v>       0.88891892       0.13902425       0.99947137 </v>
   <v>       0.88975914       0.14142009       0.49991640 </v>
   <v>       0.88903650       0.63801416       0.99152566 </v>
   <v>       0.89261197       0.64145286       0.51480734 </v>
   <v>       0.00421619       0.00196814       0.12486434 </v>
   <v>       0.00040003       0.99729627       0.62434141 </v>
   <v>       0.99046186       0.51419888       0.12756222 </v>
   <v>       0.99215766       0.47835381       0.62795779 </v>
   <v>       0.49821822       0.00383179       0.12524805 </v>
   <v>       0.51870743       0.99309940       0.62334862 </v>
   <v>       0.49812941       0.50633398       0.12495005 </v>
   <v>       0.50438622       0.50484127       0.62475159 </v>
   <v>      -0.00007863       0.99620693       0.37349241 </v>
   <v>       0.99584274       0.99646329       0.87612652 </v>
   <v>       0.98485147       0.51827281       0.37327309 </v>
   <v>       0.98551981       0.48231676       0.86969229 </v>
   <v>       0.51763420       0.97390800       0.38269329 </v>
   <v>       0.50788653       0.00935438       0.87310023 </v>
   <v>       0.49512502       0.49888788       0.37458695 </v>
   <v>       0.49887919       0.49986024       0.87504801 </v>
   <v>       0.25317185       0.25669398       0.37548312 </v>
   <v>       0.25463344       0.25087079       0.87333031 </v>
   <v>       0.24960424       0.75073756       0.37568434 </v>
   <v>       0.24997178       0.74533869       0.87439786 </v>
   <v>       0.74893009       0.25011023       0.37361294 </v>
   <v>       0.74923544       0.25422524       0.87245932 </v>
   <v>       0.76603396       0.73404607       0.37218142 </v>
   <v>       0.74958924       0.75293709       0.87508916 </v>
   <v>       0.24917537       0.24454525       0.12832166 </v>
   <v>       0.24679844       0.25306729       0.62249614 </v>
   <v>       0.24829152       0.74474746       0.12396761 </v>
   <v>       0.24812181       0.74827265       0.62649973 </v>
   <v>       0.75054614       0.24877054       0.12454324 </v>
   <v>       0.74589961       0.25284167       0.62856433 </v>
   <v>       0.76591986       0.72656489       0.12975078 </v>
   <v>       0.73110301       0.76256889       0.62065948 </v>
  </varray>
 </structure>
</modeling>
