       N       E                     dE             d eps       ncg     rms          rms(c)
DAV:   1    -0.108695414415E+04   -0.10870E+04   -0.11603E-02 13728   0.254E-01    0.304E-02
RMM:   2    -0.108695414284E+04    0.13096E-05   -0.26665E-05  6691   0.808E-03    0.552E-02
RMM:   3    -0.108695414309E+04   -0.24728E-06   -0.76833E-06  6294   0.501E-03    0.485E-03
RMM:   4    -0.108695414321E+04   -0.12430E-06   -0.23987E-06  3336   0.208E-03    0.428E-03
RMM:   5    -0.108695414325E+04   -0.42681E-07   -0.14042E-06  3222   0.232E-03    0.334E-03
RMM:   6    -0.108695414332E+04   -0.66459E-07   -0.79022E-07  2463   0.182E-03    0.117E-03
RMM:   7    -0.108695414334E+04   -0.19150E-07   -0.41641E-07  2254   0.189E-03    0.585E-04
RMM:   8    -0.108695414335E+04   -0.82655E-08   -0.11691E-07  1731   0.172E-03
   1 F= -.10869541E+04 E0= -.10869541E+04  d E =-.108695E+04  mag=    60.0000
       N       E                     dE             d eps       ncg     rms          rms(c)
DAV:   1    -0.108695434195E+04   -0.19861E-03   -0.39881E-01 12736   0.750E-01    0.265E-01
RMM:   2    -0.108695538632E+04   -0.10444E-02   -0.12330E-02 12343   0.154E-01    0.207E-01
RMM:   3    -0.108695538570E+04    0.61320E-06   -0.67987E-04 11057   0.473E-02    0.131E-01
RMM:   4    -0.108695531186E+04    0.73844E-04   -0.16560E-04  7615   0.178E-02    0.756E-02
RMM:   5    -0.108695529462E+04    0.17245E-04   -0.92698E-05  7298   0.127E-02    0.336E-02
RMM:   6    -0.108695529754E+04   -0.29267E-05   -0.20724E-05  7100   0.796E-03    0.205E-02
RMM:   7    -0.108695529876E+04   -0.12163E-05   -0.10090E-05  6591   0.426E-03    0.116E-02
RMM:   8    -0.108695529971E+04   -0.94673E-06   -0.46678E-06  5775   0.399E-03
   2 F= -.10869553E+04 E0= -.10869553E+04  d E =-.115636E-02  mag=    60.0000
       N       E                     dE             d eps       ncg     rms          rms(c)
DAV:   1    -0.108695530033E+04   -0.15681E-05   -0.15901E-04  9376   0.155E-02    0.953E-03
RMM:   2    -0.108695530132E+04   -0.99251E-06   -0.10738E-05  6456   0.611E-03    0.138E-02
RMM:   3    -0.108695530156E+04   -0.23839E-06   -0.21008E-06  4236   0.261E-03    0.311E-03
RMM:   4    -0.108695530159E+04   -0.36336E-07   -0.36214E-07  2386   0.203E-03    0.224E-03
RMM:   5    -0.108695530159E+04    0.66357E-08   -0.43735E-08  1705   0.173E-03    0.103E-03
RMM:   6    -0.108695530161E+04   -0.27125E-07   -0.74887E-09  1384   0.172E-03    0.450E-04
RMM:   7    -0.108695530161E+04    0.17608E-08   -0.43142E-09  1125   0.172E-03    0.192E-04
RMM:   8    -0.108695530161E+04    0.11496E-08   -0.44807E-10   988   0.172E-03
   3 F= -.10869553E+04 E0= -.10869553E+04  d E =-.115826E-02  mag=    60.0000
       N       E                     dE             d eps       ncg     rms          rms(c)
DAV:   1    -0.108695523844E+04    0.63173E-04   -0.39273E-01 12704   0.750E-01    0.208E-01
RMM:   2    -0.108695630746E+04   -0.10690E-02   -0.10779E-02 12407   0.140E-01    0.142E-01
RMM:   3    -0.108695633682E+04   -0.29361E-04   -0.56195E-04 10418   0.450E-02    0.872E-02
RMM:   4    -0.108695630857E+04    0.28253E-04   -0.11550E-04  7241   0.148E-02    0.510E-02
RMM:   5    -0.108695630355E+04    0.50225E-05   -0.51923E-05  7086   0.996E-03    0.263E-02
RMM:   6    -0.108695630555E+04   -0.20052E-05   -0.16561E-05  6879   0.670E-03    0.151E-02
RMM:   7    -0.108695630642E+04   -0.86926E-06   -0.89759E-06  6131   0.412E-03    0.778E-03
RMM:   8    -0.108695630680E+04   -0.38401E-06   -0.47269E-06  5242   0.384E-03
   4 F= -.10869563E+04 E0= -.10869563E+04  d E =-.100519E-02  mag=    60.0000
       N       E                     dE             d eps       ncg     rms          rms(c)
DAV:   1    -0.108695599948E+04    0.30694E-03   -0.20920E-01 12736   0.548E-01    0.152E-01
RMM:   2    -0.108695657231E+04   -0.57283E-03   -0.57771E-03 12399   0.102E-01    0.104E-01
RMM:   3    -0.108695658320E+04   -0.10884E-04   -0.26421E-04  8259   0.331E-02    0.643E-02
RMM:   4    -0.108695657091E+04    0.12288E-04   -0.75610E-05  7131   0.128E-02    0.376E-02
RMM:   5    -0.108695656906E+04    0.18498E-05   -0.36103E-05  7022   0.891E-03    0.313E-02
RMM:   6    -0.108695657050E+04   -0.14381E-05   -0.15127E-05  6740   0.595E-03    0.122E-02
RMM:   7    -0.108695657123E+04   -0.73225E-06   -0.70061E-06  5833   0.408E-03    0.640E-03
RMM:   8    -0.108695657161E+04   -0.37758E-06   -0.42880E-06  4932   0.315E-03
   5 F= -.10869566E+04 E0= -.10869566E+04  d E =-.127000E-02  mag=    60.0000
       N       E                     dE             d eps       ncg     rms          rms(c)
DAV:   1    -0.108695661421E+04   -0.42978E-04   -0.31236E-01 12656   0.665E-01    0.174E-01
RMM:   2    -0.108695742878E+04   -0.81457E-03   -0.84922E-03 12454   0.123E-01    0.128E-01
RMM:   3    -0.108695744089E+04   -0.12114E-04   -0.42858E-04  9805   0.389E-02    0.785E-02
RMM:   4    -0.108695742084E+04    0.20053E-04   -0.88593E-05  7152   0.131E-02    0.479E-02
RMM:   5    -0.108695741407E+04    0.67691E-05   -0.49545E-05  7075   0.957E-03    0.189E-02
RMM:   6    -0.108695741578E+04   -0.17094E-05   -0.15663E-05  6839   0.626E-03    0.113E-02
RMM:   7    -0.108695741647E+04   -0.69255E-06   -0.83584E-06  6026   0.402E-03    0.554E-03
RMM:   8    -0.108695741666E+04   -0.18976E-06   -0.45758E-06  5240   0.359E-03
   6 F= -.10869574E+04 E0= -.10869574E+04  d E =-.845052E-03  mag=    60.0000
