<?xml version="1.0" encoding="ISO-8859-1"?>
<modeling>
 <generator>
  <i name="program" type="string">vasp </i>
  <i name="version" type="string">5.4.1  </i>
  <i name="subversion" type="string">05Feb16 (build Jan 25 2017 20:16:33) complex                          parallel </i>
  <i name="platform" type="string">BWXE6 </i>
  <i name="date" type="string">2019 06 18 </i>
  <i name="time" type="string">09:36:52 </i>
 </generator>
 <incar>
  <i type="string" name="SYSTEM"> STF</i>
  <i type="string" name="PREC">normal</i>
  <i type="string" name="ALGO"> Fast</i>
  <i type="int" name="ISPIN">     2</i>
  <i type="int" name="NELM">    40</i>
  <i type="int" name="NELMIN">     8</i>
  <i type="int" name="IBRION">     2</i>
  <i name="EDIFF">      0.00010000</i>
  <i name="EDIFFG">     -0.03000000</i>
  <i type="int" name="NSW">    30</i>
  <i type="int" name="ISIF">     3</i>
  <i name="ENCUT">    520.00000000</i>
  <i type="int" name="NBANDS">   768</i>
  <v name="MAGMOM">      0.60000000      0.60000000      0.60000000      0.60000000      0.60000000      0.60000000      0.60000000      0.60000000      0.60000000      0.60000000      0.60000000      0.60000000      0.60000000      0.60000000      0.60000000      0.60000000      0.60000000      0.60000000      0.60000000      0.60000000
      0.60000000      0.60000000      0.60000000      0.60000000      0.60000000      0.60000000      0.60000000      0.60000000      0.60000000      0.60000000      0.60000000      0.60000000      0.60000000      0.60000000      0.60000000      0.60000000      0.60000000      0.60000000      0.60000000      0.60000000
      0.60000000      0.60000000      0.60000000      0.60000000      0.60000000      0.60000000      0.60000000      0.60000000      0.60000000      0.60000000      0.60000000      0.60000000      5.00000000      5.00000000      5.00000000      5.00000000      5.00000000      5.00000000      5.00000000      5.00000000
      5.00000000      5.00000000      5.00000000      5.00000000      0.60000000      0.60000000      0.60000000      0.60000000      0.60000000      0.60000000      0.60000000      0.60000000      0.60000000      0.60000000      0.60000000      0.60000000      0.60000000      0.60000000      0.60000000      0.60000000
      0.60000000      0.60000000      0.60000000      0.60000000      0.60000000      0.60000000      0.60000000      0.60000000      0.60000000      0.60000000      0.60000000      0.60000000      0.60000000      0.60000000      0.60000000      0.60000000      0.60000000      0.60000000      0.60000000      0.60000000
      0.60000000      0.60000000      0.60000000      0.60000000      0.60000000      0.60000000      0.60000000      0.60000000      0.60000000      0.60000000      0.60000000      0.60000000      0.60000000      0.60000000      0.60000000      0.60000000      0.60000000      0.60000000      0.60000000      0.60000000
      0.60000000      0.60000000      0.60000000      0.60000000      0.60000000      0.60000000      0.60000000      0.60000000      0.60000000      0.60000000      0.60000000      0.60000000      0.60000000      0.60000000      0.60000000      0.60000000      0.60000000      0.60000000      0.60000000      0.60000000
      0.60000000      0.60000000      0.60000000      0.60000000      0.60000000      0.60000000      0.60000000      0.60000000      0.60000000      0.60000000      0.60000000      0.60000000      0.60000000      0.60000000</v>
  <i type="string" name="LREAL"> Auto</i>
  <i type="int" name="ISMEAR">     0</i>
  <i name="SIGMA">      0.05000000</i>
  <i type="int" name="LMAXMIX">     4</i>
  <v type="int" name="KPOINT_BSE">    -1     0     0     0</v>
  <i type="int" name="NELM">    40</i>
  <i type="logical" name="LDAU"> T  </i>
  <v type="int" name="LDAUTYPE">     2</v>
  <v type="int" name="LDAUL">     0     2     2     0</v>
  <v name="LDAUU">      0.00000000      3.00000000      5.00000000      0.00000000</v>
  <v name="LDAUJ">      0.00000000      0.00000000      0.00000000      0.00000000</v>
  <i type="int" name="LDAUPRINT">     1</i>
 </incar>
 <kpoints>
  <generation param="Monkhorst-Pack">
   <v type="int" name="divisions">       2        2        2 </v>
   <v name="usershift">      0.00000000       0.00000000       0.00000000 </v>
   <v name="genvec1">      0.50000000      -0.00000000      -0.00000000 </v>
   <v name="genvec2">     -0.00000000       0.50000000       0.00000000 </v>
   <v name="genvec3">      0.00000000       0.00000000       0.50000000 </v>
   <v name="shift">      0.50000000       0.50000000       0.50000000 </v>
  </generation>
  <varray name="kpointlist" >
   <v>       0.25000000       0.25000000       0.25000000 </v>
   <v>      -0.25000000       0.25000000       0.25000000 </v>
   <v>       0.25000000      -0.25000000       0.25000000 </v>
   <v>      -0.25000000      -0.25000000       0.25000000 </v>
  </varray>
  <varray name="weights" >
   <v>       0.25000000 </v>
   <v>       0.25000000 </v>
   <v>       0.25000000 </v>
   <v>       0.25000000 </v>
  </varray>
 </kpoints>
 <parameters>
  <separator name="general" >
   <i type="string" name="SYSTEM">STF</i>
   <i type="logical" name="LCOMPAT"> F  </i>
  </separator>
  <separator name="electronic" >
   <i type="string" name="PREC">normal</i>
   <i name="ENMAX">    520.00000000</i>
   <i name="ENAUG">    605.39200000</i>
   <i name="EDIFF">      0.00010000</i>
   <i type="int" name="IALGO">    68</i>
   <i type="int" name="IWAVPR">    11</i>
   <i type="int" name="NBANDS">   768</i>
   <i name="NELECT">   1036.00000000</i>
   <i type="int" name="TURBO">     0</i>
   <i type="int" name="IRESTART">     0</i>
   <i type="int" name="NREBOOT">     0</i>
   <i type="int" name="NMIN">     0</i>
   <i name="EREF">      0.00000000</i>
   <separator name="electronic smearing" >
    <i type="int" name="ISMEAR">     0</i>
    <i name="SIGMA">      0.05000000</i>
    <i name="KSPACING">      0.50000000</i>
    <i type="logical" name="KGAMMA"> T  </i>
   </separator>
   <separator name="electronic projectors" >
    <i type="logical" name="LREAL"> T  </i>
    <v name="ROPT">     -0.00050000     -0.00050000     -0.00050000     -0.00050000</v>
    <i type="int" name="LMAXPAW">  -100</i>
    <i type="int" name="LMAXMIX">     4</i>
    <i type="logical" name="NLSPLINE"> F  </i>
   </separator>
   <separator name="electronic startup" >
    <i type="int" name="ISTART">     1</i>
    <i type="int" name="ICHARG">     0</i>
    <i type="int" name="INIWAV">     1</i>
   </separator>
   <separator name="electronic spin" >
    <i type="int" name="ISPIN">     2</i>
    <i type="logical" name="LNONCOLLINEAR"> F  </i>
    <v name="MAGMOM">      0.60000000      0.60000000      0.60000000      0.60000000      0.60000000      0.60000000      0.60000000      0.60000000      0.60000000      0.60000000      0.60000000      0.60000000      0.60000000      0.60000000      0.60000000      0.60000000      0.60000000      0.60000000      0.60000000      0.60000000
      0.60000000      0.60000000      0.60000000      0.60000000      0.60000000      0.60000000      0.60000000      0.60000000      0.60000000      0.60000000      0.60000000      0.60000000      0.60000000      0.60000000      0.60000000      0.60000000      0.60000000      0.60000000      0.60000000      0.60000000
      0.60000000      0.60000000      0.60000000      0.60000000      0.60000000      0.60000000      0.60000000      0.60000000      0.60000000      0.60000000      0.60000000      0.60000000      5.00000000      5.00000000      5.00000000      5.00000000      5.00000000      5.00000000      5.00000000      5.00000000
      5.00000000      5.00000000      5.00000000      5.00000000      0.60000000      0.60000000      0.60000000      0.60000000      0.60000000      0.60000000      0.60000000      0.60000000      0.60000000      0.60000000      0.60000000      0.60000000      0.60000000      0.60000000      0.60000000      0.60000000
      0.60000000      0.60000000      0.60000000      0.60000000      0.60000000      0.60000000      0.60000000      0.60000000      0.60000000      0.60000000      0.60000000      0.60000000      0.60000000      0.60000000      0.60000000      0.60000000      0.60000000      0.60000000      0.60000000      0.60000000
      0.60000000      0.60000000      0.60000000      0.60000000      0.60000000      0.60000000      0.60000000      0.60000000      0.60000000      0.60000000      0.60000000      0.60000000      0.60000000      0.60000000      0.60000000      0.60000000      0.60000000      0.60000000      0.60000000      0.60000000
      0.60000000      0.60000000      0.60000000      0.60000000      0.60000000      0.60000000      0.60000000      0.60000000      0.60000000      0.60000000      0.60000000      0.60000000      0.60000000      0.60000000      0.60000000      0.60000000      0.60000000      0.60000000      0.60000000      0.60000000
      0.60000000      0.60000000      0.60000000      0.60000000      0.60000000      0.60000000      0.60000000      0.60000000      0.60000000      0.60000000      0.60000000      0.60000000      0.60000000      0.60000000</v>
    <i name="NUPDOWN">     -1.00000000</i>
    <i type="logical" name="LSORBIT"> F  </i>
    <v name="SAXIS">      0.00000000      0.00000000      1.00000000</v>
    <i type="logical" name="LSPIRAL"> F  </i>
    <v name="QSPIRAL">      0.00000000      0.00000000      0.00000000</v>
    <i type="logical" name="LZEROZ"> F  </i>
   </separator>
   <separator name="electronic exchange-correlation" >
    <i type="logical" name="LASPH"> F  </i>
    <i type="logical" name="LMETAGGA"> F  </i>
   </separator>
   <separator name="electronic convergence" >
    <i type="int" name="NELM">    40</i>
    <i type="int" name="NELMDL">     0</i>
    <i type="int" name="NELMIN">     8</i>
    <i name="ENINI">    520.00000000</i>
    <separator name="electronic convergence detail" >
     <i type="logical" name="LDIAG"> T  </i>
     <i type="logical" name="LSUBROT"> F  </i>
     <i name="WEIMIN">      0.00100000</i>
     <i name="EBREAK">      0.00000003</i>
     <i name="DEPER">      0.30000000</i>
     <i type="int" name="NRMM">     4</i>
     <i name="TIME">      0.40000000</i>
    </separator>
   </separator>
   <separator name="electronic mixer" >
    <i name="AMIX">      0.40000000</i>
    <i name="BMIX">      1.00000000</i>
    <i name="AMIN">      0.10000000</i>
    <i name="AMIX_MAG">      1.60000000</i>
    <i name="BMIX_MAG">      1.00000000</i>
    <separator name="electronic mixer details" >
     <i type="int" name="IMIX">     4</i>
     <i type="logical" name="MIXFIRST"> F  </i>
     <i type="int" name="MAXMIX">   -45</i>
     <i name="WC">    100.00000000</i>
     <i type="int" name="INIMIX">     1</i>
     <i type="int" name="MIXPRE">     1</i>
     <i type="int" name="MREMOVE">     5</i>
    </separator>
   </separator>
   <separator name="electronic dipolcorrection" >
    <i type="logical" name="LDIPOL"> F  </i>
    <i type="logical" name="LMONO"> F  </i>
    <i type="int" name="IDIPOL">     0</i>
    <i name="EPSILON">      1.00000000</i>
    <v name="DIPOL">   -100.00000000   -100.00000000   -100.00000000</v>
    <i name="EFIELD">      0.00000000</i>
   </separator>
  </separator>
  <separator name="grids" >
   <i type="int" name="NGX">    64</i>
   <i type="int" name="NGY">    64</i>
   <i type="int" name="NGZ">    90</i>
   <i type="int" name="NGXF">   128</i>
   <i type="int" name="NGYF">   128</i>
   <i type="int" name="NGZF">   180</i>
   <i type="logical" name="ADDGRID"> F  </i>
  </separator>
  <separator name="ionic" >
   <i type="int" name="NSW">    30</i>
   <i type="int" name="IBRION">     2</i>
   <i type="int" name="ISIF">     3</i>
   <i name="PSTRESS">      0.00000000</i>
   <i name="EDIFFG">     -0.03000000</i>
   <i type="int" name="NFREE">     1</i>
   <i name="POTIM">      0.50000000</i>
   <i name="SMASS">     -3.00000000</i>
   <i name="SCALEE">      1.00000000</i>
  </separator>
  <separator name="ionic md" >
   <i name="TEBEG">      0.00010000</i>
   <i name="TEEND">      0.00010000</i>
   <i type="int" name="NBLOCK">     1</i>
   <i type="int" name="KBLOCK">    30</i>
   <i type="int" name="NPACO">   256</i>
   <i name="APACO">     16.00000000</i>
  </separator>
  <separator name="symmetry" >
   <i type="int" name="ISYM">     2</i>
   <i name="SYMPREC">      0.00001000</i>
  </separator>
  <separator name="dos" >
   <i type="logical" name="LORBIT"> F  </i>
   <v name="RWIGS">     -1.00000000     -1.00000000     -1.00000000     -1.00000000</v>
   <i type="int" name="NEDOS">   301</i>
   <i name="EMIN">     10.00000000</i>
   <i name="EMAX">    -10.00000000</i>
   <i name="EFERMI">      0.00000000</i>
  </separator>
  <separator name="writing" >
   <i type="int" name="NWRITE">     2</i>
   <i type="logical" name="LWAVE"> T  </i>
   <i type="logical" name="LCHARG"> T  </i>
   <i type="logical" name="LPARD"> F  </i>
   <i type="logical" name="LVTOT"> F  </i>
   <i type="logical" name="LVHAR"> F  </i>
   <i type="logical" name="LELF"> F  </i>
   <i type="logical" name="LOPTICS"> F  </i>
   <v name="STM">      0.00000000      0.00000000      0.00000000      0.00000000      0.00000000      0.00000000      0.00000000</v>
  </separator>
  <separator name="performance" >
   <i type="int" name="NPAR">     2</i>
   <i type="int" name="NSIM">     4</i>
   <i type="int" name="NBLK">    -1</i>
   <i type="logical" name="LPLANE"> T  </i>
   <i type="logical" name="LSCALAPACK"> T  </i>
   <i type="logical" name="LSCAAWARE"> F  </i>
   <i type="logical" name="LSCALU"> F  </i>
   <i type="logical" name="LASYNC"> F  </i>
   <i type="logical" name="LORBITALREAL"> F  </i>
  </separator>
  <separator name="miscellaneous" >
   <i type="int" name="IDIOT">     3</i>
   <i type="logical" name="LMUSIC"> F  </i>
   <v name="POMASS">     87.62000000     47.88000000     55.84700000     16.00000000</v>
   <v name="DARWINR">      0.00000000      0.00000000      0.00000000      0.00000000</v>
   <v name="DARWINV">      1.00000000      1.00000000      1.00000000      1.00000000</v>
   <i type="logical" name="LCORR"> T  </i>
  </separator>
  <i type="logical" name="GGA_COMPAT"> T  </i>
  <i type="logical" name="LBERRY"> F  </i>
  <i type="int" name="ICORELEVEL">     0</i>
  <i type="logical" name="LDAU"> T  </i>
  <v type="int" name="LDAUTYPE">     2</v>
  <v type="int" name="LDAUL">     0</v>
  <v name="LDAUU">      0.00000000</v>
  <v name="LDAUJ">      0.00000000</v>
  <i type="int" name="LDAUPRINT">     1</i>
  <i type="int" name="I_CONSTRAINED_M">     0</i>
  <separator name="electronic exchange-correlation" >
   <i type="string" name="GGA">--</i>
   <i type="int" name="VOSKOWN">     0</i>
   <i type="logical" name="LHFCALC"> F  </i>
   <i type="string" name="PRECFOCK"></i>
   <i type="logical" name="LSYMGRAD"> F  </i>
   <i type="logical" name="LHFONE"> F  </i>
   <i type="logical" name="LRHFCALC"> F  </i>
   <i type="logical" name="LTHOMAS"> F  </i>
   <i type="logical" name="LMODELHF"> F  </i>
   <i name="ENCUT4O">     -1.00000000</i>
   <i type="int" name="EXXOEP">     0</i>
   <i type="int" name="FOURORBIT">     0</i>
   <i name="AEXX">      0.00000000</i>
   <i name="HFALPHA">      0.00000000</i>
   <i name="MCALPHA">      0.00000000</i>
   <i name="ALDAX">      1.00000000</i>
   <i name="AGGAX">      1.00000000</i>
   <i name="ALDAC">      1.00000000</i>
   <i name="AGGAC">      1.00000000</i>
   <i type="int" name="NKREDX">     1</i>
   <i type="int" name="NKREDY">     1</i>
   <i type="int" name="NKREDZ">     1</i>
   <i type="logical" name="SHIFTRED"> F  </i>
   <i type="logical" name="ODDONLY"> F  </i>
   <i type="logical" name="EVENONLY"> F  </i>
   <i type="int" name="LMAXFOCK">     0</i>
   <i type="int" name="NMAXFOCKAE">     0</i>
   <i type="logical" name="LFOCKAEDFT"> F  </i>
   <i name="HFSCREEN">      0.00000000</i>
   <i name="HFSCREENC">      0.00000000</i>
   <i type="int" name="NBANDSGWLOW">     0</i>
  </separator>
  <separator name="vdW DFT" >
   <i type="logical" name="LUSE_VDW"> F  </i>
   <i name="Zab_VDW">     -0.84910000</i>
   <i name="PARAM1">      0.12340000</i>
   <i name="PARAM2">      1.00000000</i>
   <i name="PARAM3">      0.00000000</i>
  </separator>
  <separator name="model GW" >
   <i type="int" name="MODEL_GW">     0</i>
   <i name="MODEL_EPS0">      7.84321659</i>
   <i name="MODEL_ALPHA">      1.00000000</i>
  </separator>
  <separator name="linear response parameters" >
   <i type="logical" name="LEPSILON"> F  </i>
   <i type="logical" name="LRPA"> F  </i>
   <i type="logical" name="LNABLA"> F  </i>
   <i type="logical" name="LVEL"> F  </i>
   <i type="int" name="KINTER">     0</i>
   <i name="CSHIFT">      0.10000000</i>
   <i name="OMEGAMAX">     -1.00000000</i>
   <i name="DEG_THRESHOLD">      0.00200000</i>
  </separator>
  <separator name="orbital magnetization" >
   <i type="logical" name="NUCIND"> F  </i>
   <v name="MAGPOS">      0.00000000      0.00000000      0.00000000</v>
   <i type="logical" name="LNICSALL"> T  </i>
   <i type="logical" name="ORBITALMAG"> F  </i>
   <i type="logical" name="LMAGBLOCH"> F  </i>
   <i type="logical" name="LCHIMAG"> F  </i>
   <i type="logical" name="LGAUGE"> T  </i>
   <i type="int" name="MAGATOM">     0</i>
   <v name="MAGDIPOL">      0.00000000      0.00000000      0.00000000</v>
   <v name="AVECCONST">      0.00000000      0.00000000      0.00000000</v>
  </separator>
  <separator name="response functions" >
   <i type="logical" name="LADDER"> F  </i>
   <i type="logical" name="LFXC"> F  </i>
   <i type="logical" name="LHARTREE"> T  </i>
   <i type="int" name="IBSE">     0</i>
   <v type="int" name="KPOINT">    -1     0     0     0</v>
   <i type="logical" name="LTCTE"> F  </i>
   <i type="logical" name="LTETE"> F  </i>
   <i type="logical" name="LTRIPLET"> F  </i>
   <i type="logical" name="LFXCEPS"> F  </i>
   <i type="logical" name="LFXHEG"> F  </i>
   <i type="int" name="NATURALO">     0</i>
   <i type="logical" name="L2ORDER"> F  </i>
   <i type="logical" name="LUSEW"> F  </i>
   <i name="ENCUTGW">     -2.00000000</i>
   <i name="ENCUTGWSOFT">     -2.00000000</i>
   <i name="ENCUTLF">     -1.00000000</i>
   <i type="int" name="LMAXMP2">    -1</i>
   <i name="SCISSOR">      0.00000000</i>
   <i type="int" name="NOMEGA">     0</i>
   <i type="int" name="NOMEGAR">     0</i>
   <i type="int" name="NBANDSGW">    -1</i>
   <i type="int" name="NBANDSO">    -1</i>
   <i type="int" name="NBANDSV">    -1</i>
   <i type="int" name="NELM">    40</i>
   <i type="int" name="NELMHF">     1</i>
   <i type="int" name="DIM">     3</i>
   <i type="int" name="ANTIRES">     0</i>
   <i name="OMEGAMAX">    -30.00000000</i>
   <i name="OMEGAMIN">    -30.00000000</i>
   <i name="OMEGATL">   -200.00000000</i>
   <i type="int" name="OMEGAGRID">     0</i>
   <i name="CSHIFT">     -0.10000000</i>
   <i type="logical" name="SELFENERGY"> F  </i>
   <i type="logical" name="LSPECTRAL"> F  </i>
   <i type="logical" name="LSPECTRALGW"> F  </i>
   <i type="logical" name="LSINGLES"> F  </i>
   <i type="logical" name="LFERMIGW"> F  </i>
   <i type="logical" name="ODDONLYGW"> F  </i>
   <i type="logical" name="EVENONLYGW"> F  </i>
   <i type="int" name="NKREDLFX">     1</i>
   <i type="int" name="NKREDLFY">     1</i>
   <i type="int" name="NKREDLFZ">     1</i>
   <i type="int" name="MAXMEM">  1800</i>
   <i type="int" name="TELESCOPE">     0</i>
   <i type="int" name="TAUPAR">     1</i>
   <i type="int" name="OMEGAPAR">    -1</i>
   <i name="LAMBDA">      1.00000000</i>
  </separator>
  <separator name="External order field" >
   <i name="OFIELD_KAPPA">      0.00000000</i>
   <v name="OFIELD_K">      0.00000000      0.00000000      0.00000000</v>
   <i name="OFIELD_Q6_NEAR">      0.00000000</i>
   <i name="OFIELD_Q6_FAR">      0.00000000</i>
   <i name="OFIELD_A">      0.00000000</i>
  </separator>
 </parameters>
 <atominfo>
  <atoms>     154 </atoms>
  <types>       4 </types>
  <array name="atoms" >
   <dimension dim="1">ion</dimension>
   <field type="string">element</field>
   <field type="int">atomtype</field>
   <set>
    <rc><c>Sr</c><c>   1</c></rc>
    <rc><c>Sr</c><c>   1</c></rc>
    <rc><c>Sr</c><c>   1</c></rc>
    <rc><c>Sr</c><c>   1</c></rc>
    <rc><c>Sr</c><c>   1</c></rc>
    <rc><c>Sr</c><c>   1</c></rc>
    <rc><c>Sr</c><c>   1</c></rc>
    <rc><c>Sr</c><c>   1</c></rc>
    <rc><c>Sr</c><c>   1</c></rc>
    <rc><c>Sr</c><c>   1</c></rc>
    <rc><c>Sr</c><c>   1</c></rc>
    <rc><c>Sr</c><c>   1</c></rc>
    <rc><c>Sr</c><c>   1</c></rc>
    <rc><c>Sr</c><c>   1</c></rc>
    <rc><c>Sr</c><c>   1</c></rc>
    <rc><c>Sr</c><c>   1</c></rc>
    <rc><c>Sr</c><c>   1</c></rc>
    <rc><c>Sr</c><c>   1</c></rc>
    <rc><c>Sr</c><c>   1</c></rc>
    <rc><c>Sr</c><c>   1</c></rc>
    <rc><c>Sr</c><c>   1</c></rc>
    <rc><c>Sr</c><c>   1</c></rc>
    <rc><c>Sr</c><c>   1</c></rc>
    <rc><c>Sr</c><c>   1</c></rc>
    <rc><c>Sr</c><c>   1</c></rc>
    <rc><c>Sr</c><c>   1</c></rc>
    <rc><c>Sr</c><c>   1</c></rc>
    <rc><c>Sr</c><c>   1</c></rc>
    <rc><c>Sr</c><c>   1</c></rc>
    <rc><c>Sr</c><c>   1</c></rc>
    <rc><c>Sr</c><c>   1</c></rc>
    <rc><c>Sr</c><c>   1</c></rc>
    <rc><c>Ti</c><c>   2</c></rc>
    <rc><c>Ti</c><c>   2</c></rc>
    <rc><c>Ti</c><c>   2</c></rc>
    <rc><c>Ti</c><c>   2</c></rc>
    <rc><c>Ti</c><c>   2</c></rc>
    <rc><c>Ti</c><c>   2</c></rc>
    <rc><c>Ti</c><c>   2</c></rc>
    <rc><c>Ti</c><c>   2</c></rc>
    <rc><c>Ti</c><c>   2</c></rc>
    <rc><c>Ti</c><c>   2</c></rc>
    <rc><c>Ti</c><c>   2</c></rc>
    <rc><c>Ti</c><c>   2</c></rc>
    <rc><c>Ti</c><c>   2</c></rc>
    <rc><c>Ti</c><c>   2</c></rc>
    <rc><c>Ti</c><c>   2</c></rc>
    <rc><c>Ti</c><c>   2</c></rc>
    <rc><c>Ti</c><c>   2</c></rc>
    <rc><c>Ti</c><c>   2</c></rc>
    <rc><c>Ti</c><c>   2</c></rc>
    <rc><c>Ti</c><c>   2</c></rc>
    <rc><c>Fe</c><c>   3</c></rc>
    <rc><c>Fe</c><c>   3</c></rc>
    <rc><c>Fe</c><c>   3</c></rc>
    <rc><c>Fe</c><c>   3</c></rc>
    <rc><c>Fe</c><c>   3</c></rc>
    <rc><c>Fe</c><c>   3</c></rc>
    <rc><c>Fe</c><c>   3</c></rc>
    <rc><c>Fe</c><c>   3</c></rc>
    <rc><c>Fe</c><c>   3</c></rc>
    <rc><c>Fe</c><c>   3</c></rc>
    <rc><c>Fe</c><c>   3</c></rc>
    <rc><c>Fe</c><c>   3</c></rc>
    <rc><c>O </c><c>   4</c></rc>
    <rc><c>O </c><c>   4</c></rc>
    <rc><c>O </c><c>   4</c></rc>
    <rc><c>O </c><c>   4</c></rc>
    <rc><c>O </c><c>   4</c></rc>
    <rc><c>O </c><c>   4</c></rc>
    <rc><c>O </c><c>   4</c></rc>
    <rc><c>O </c><c>   4</c></rc>
    <rc><c>O </c><c>   4</c></rc>
    <rc><c>O </c><c>   4</c></rc>
    <rc><c>O </c><c>   4</c></rc>
    <rc><c>O </c><c>   4</c></rc>
    <rc><c>O </c><c>   4</c></rc>
    <rc><c>O </c><c>   4</c></rc>
    <rc><c>O </c><c>   4</c></rc>
    <rc><c>O </c><c>   4</c></rc>
    <rc><c>O </c><c>   4</c></rc>
    <rc><c>O </c><c>   4</c></rc>
    <rc><c>O </c><c>   4</c></rc>
    <rc><c>O </c><c>   4</c></rc>
    <rc><c>O </c><c>   4</c></rc>
    <rc><c>O </c><c>   4</c></rc>
    <rc><c>O </c><c>   4</c></rc>
    <rc><c>O </c><c>   4</c></rc>
    <rc><c>O </c><c>   4</c></rc>
    <rc><c>O </c><c>   4</c></rc>
    <rc><c>O </c><c>   4</c></rc>
    <rc><c>O </c><c>   4</c></rc>
    <rc><c>O </c><c>   4</c></rc>
    <rc><c>O </c><c>   4</c></rc>
    <rc><c>O </c><c>   4</c></rc>
    <rc><c>O </c><c>   4</c></rc>
    <rc><c>O </c><c>   4</c></rc>
    <rc><c>O </c><c>   4</c></rc>
    <rc><c>O </c><c>   4</c></rc>
    <rc><c>O </c><c>   4</c></rc>
    <rc><c>O </c><c>   4</c></rc>
    <rc><c>O </c><c>   4</c></rc>
    <rc><c>O </c><c>   4</c></rc>
    <rc><c>O </c><c>   4</c></rc>
    <rc><c>O </c><c>   4</c></rc>
    <rc><c>O </c><c>   4</c></rc>
    <rc><c>O </c><c>   4</c></rc>
    <rc><c>O </c><c>   4</c></rc>
    <rc><c>O </c><c>   4</c></rc>
    <rc><c>O </c><c>   4</c></rc>
    <rc><c>O </c><c>   4</c></rc>
    <rc><c>O </c><c>   4</c></rc>
    <rc><c>O </c><c>   4</c></rc>
    <rc><c>O </c><c>   4</c></rc>
    <rc><c>O </c><c>   4</c></rc>
    <rc><c>O </c><c>   4</c></rc>
    <rc><c>O </c><c>   4</c></rc>
    <rc><c>O </c><c>   4</c></rc>
    <rc><c>O </c><c>   4</c></rc>
    <rc><c>O </c><c>   4</c></rc>
    <rc><c>O </c><c>   4</c></rc>
    <rc><c>O </c><c>   4</c></rc>
    <rc><c>O </c><c>   4</c></rc>
    <rc><c>O </c><c>   4</c></rc>
    <rc><c>O </c><c>   4</c></rc>
    <rc><c>O </c><c>   4</c></rc>
    <rc><c>O </c><c>   4</c></rc>
    <rc><c>O </c><c>   4</c></rc>
    <rc><c>O </c><c>   4</c></rc>
    <rc><c>O </c><c>   4</c></rc>
    <rc><c>O </c><c>   4</c></rc>
    <rc><c>O </c><c>   4</c></rc>
    <rc><c>O </c><c>   4</c></rc>
    <rc><c>O </c><c>   4</c></rc>
    <rc><c>O </c><c>   4</c></rc>
    <rc><c>O </c><c>   4</c></rc>
    <rc><c>O </c><c>   4</c></rc>
    <rc><c>O </c><c>   4</c></rc>
    <rc><c>O </c><c>   4</c></rc>
    <rc><c>O </c><c>   4</c></rc>
    <rc><c>O </c><c>   4</c></rc>
    <rc><c>O </c><c>   4</c></rc>
    <rc><c>O </c><c>   4</c></rc>
    <rc><c>O </c><c>   4</c></rc>
    <rc><c>O </c><c>   4</c></rc>
    <rc><c>O </c><c>   4</c></rc>
    <rc><c>O </c><c>   4</c></rc>
    <rc><c>O </c><c>   4</c></rc>
    <rc><c>O </c><c>   4</c></rc>
    <rc><c>O </c><c>   4</c></rc>
    <rc><c>O </c><c>   4</c></rc>
    <rc><c>O </c><c>   4</c></rc>
    <rc><c>O </c><c>   4</c></rc>
    <rc><c>O </c><c>   4</c></rc>
   </set>
  </array>
  <array name="atomtypes" >
   <dimension dim="1">type</dimension>
   <field type="int">atomspertype</field>
   <field type="string">element</field>
   <field>mass</field>
   <field>valence</field>
   <field type="string">pseudopotential</field>
   <set>
    <rc><c>  32</c><c>Sr</c><c>     87.62000000</c><c>     10.00000000</c><c>  PAW_PBE Sr_sv 07Sep2000               </c></rc>
    <rc><c>  20</c><c>Ti</c><c>     47.88000000</c><c>      4.00000000</c><c>  PAW_PBE Ti 08Apr2002                  </c></rc>
    <rc><c>  12</c><c>Fe</c><c>     55.84700000</c><c>      8.00000000</c><c>  PAW_PBE Fe 06Sep2000                  </c></rc>
    <rc><c>  90</c><c>O </c><c>     16.00000000</c><c>      6.00000000</c><c>  PAW_PBE O 08Apr2002                   </c></rc>
   </set>
  </array>
 </atominfo>
 <structure name="initialpos" >
  <crystal>
   <varray name="basis" >
    <v>      11.23908063       0.01939324       0.00677910 </v>
    <v>       0.01939700      11.23880141      -0.00723847 </v>
    <v>       0.00965129      -0.01034239      15.93729195 </v>
   </varray>
   <i name="volume">   2013.09225758 </i>
   <varray name="rec_basis" >
    <v>       0.08897555      -0.00015360      -0.00005398 </v>
    <v>      -0.00015357       0.08897776       0.00005783 </v>
    <v>      -0.00003792       0.00004048       0.06274597 </v>
   </varray>
  </crystal>
  <varray name="positions" >
   <v>       0.00330414       0.24442040       0.12940029 </v>
   <v>       0.00312529       0.25229885       0.62455921 </v>
   <v>       0.00442361       0.75245954       0.12936058 </v>
   <v>       0.00403945       0.74756892       0.61877598 </v>
   <v>       0.50603054       0.25256236       0.12964494 </v>
   <v>       0.49583538       0.25459541       0.61991062 </v>
   <v>       0.50595042       0.74137911       0.13650697 </v>
   <v>       0.49540926       0.74872060       0.61759787 </v>
   <v>       0.99520660       0.25714563       0.38218354 </v>
   <v>       0.01149216       0.24302484       0.86981285 </v>
   <v>       0.99357175       0.74488747       0.37619300 </v>
   <v>       0.01482652       0.75671885       0.87192174 </v>
   <v>       0.50630166       0.25025738       0.37486045 </v>
   <v>       0.49083980       0.25887778       0.86863177 </v>
   <v>       0.50630982       0.74671351       0.37557365 </v>
   <v>       0.48894265       0.74592977       0.87681221 </v>
   <v>       0.24661924       0.99649115       0.12539618 </v>
   <v>       0.24567061       0.00230619       0.62396070 </v>
   <v>       0.24386993       0.50169900       0.12796297 </v>
   <v>       0.24716981       0.49509924       0.62344434 </v>
   <v>       0.75830733       0.00400396       0.13378652 </v>
   <v>       0.75537994       0.00249361       0.61842952 </v>
   <v>       0.75235818       0.49854190       0.14041543 </v>
   <v>       0.75325754       0.50396424       0.61647142 </v>
   <v>       0.25234084       0.99579425       0.37837794 </v>
   <v>       0.24157315       0.00610578       0.87498288 </v>
   <v>       0.24956235       0.50217000       0.37784736 </v>
   <v>       0.24242995       0.49362078       0.86978240 </v>
   <v>       0.74857551       0.99518674       0.37300930 </v>
   <v>       0.76164708       0.01489311       0.87507918 </v>
   <v>       0.75084289       0.50588878       0.37627206 </v>
   <v>       0.75797098       0.49107450       0.86572091 </v>
   <v>       0.99916156       0.99893957       0.49764478 </v>
   <v>       0.00425897       0.48759858       0.00117203 </v>
   <v>       0.49506833       0.00762695       0.00884390 </v>
   <v>       0.50215885       0.99825953       0.49432323 </v>
   <v>       0.50127479       0.50167738       0.49960912 </v>
   <v>       0.24870613       0.24937248       0.50112897 </v>
   <v>       0.24901836       0.75243972       0.00056617 </v>
   <v>       0.24977131       0.74798106       0.49916185 </v>
   <v>       0.76319617       0.24823416       0.00071529 </v>
   <v>       0.75042134       0.25013062       0.50025611 </v>
   <v>       0.26465932       0.25671913       0.24868085 </v>
   <v>       0.25459737       0.75038165       0.25020904 </v>
   <v>       0.25394450       0.75003901       0.75054394 </v>
   <v>       0.74970176       0.24911165       0.25278612 </v>
   <v>       0.74861087       0.25298533       0.74929319 </v>
   <v>       0.75959629       0.75823145       0.75454668 </v>
   <v>       0.00458147       0.00442567       0.74942250 </v>
   <v>       0.99830085       0.50120802       0.25275304 </v>
   <v>       0.99953809       0.49971089       0.74657095 </v>
   <v>       0.50038082       0.00031849       0.74299676 </v>
   <v>       0.00917406       0.00076807       0.00234056 </v>
   <v>       0.99932474       0.50158661       0.50096153 </v>
   <v>       0.47354572       0.50060979       0.99867063 </v>
   <v>       0.24902898       0.24222064       0.99737701 </v>
   <v>       0.74289964       0.78274170       0.99031178 </v>
   <v>       0.74875512       0.75040949       0.49949699 </v>
   <v>       0.24995658       0.24903297       0.75081495 </v>
   <v>       0.74690188       0.74906891       0.25578518 </v>
   <v>       0.99109432       0.98538622       0.25011706 </v>
   <v>       0.50089927       0.99536155       0.25119550 </v>
   <v>       0.50525633       0.50156172       0.25430903 </v>
   <v>       0.49263141       0.48934355       0.74780053 </v>
   <v>       0.11729698       0.13144934       0.74575014 </v>
   <v>       0.12044766       0.62913183       0.24682492 </v>
   <v>       0.11855981       0.63326080       0.74871201 </v>
   <v>       0.61761260       0.13343800       0.24751650 </v>
   <v>       0.61741584       0.12668226       0.76649136 </v>
   <v>       0.61797265       0.63102968       0.25168644 </v>
   <v>       0.38888744       0.36331236       0.24392374 </v>
   <v>       0.38131081       0.36870231       0.75163546 </v>
   <v>       0.38839664       0.85808149       0.25139242 </v>
   <v>       0.38393096       0.87297898       0.76303449 </v>
   <v>       0.88183914       0.36877326       0.25099404 </v>
   <v>       0.88460753       0.36260206       0.75276709 </v>
   <v>       0.88044696       0.86190842       0.23658558 </v>
   <v>       0.88360824       0.86364895       0.75517164 </v>
   <v>       0.35212987       0.10782031       0.25462032 </v>
   <v>       0.37580725       0.11336759       0.76617536 </v>
   <v>       0.36756014       0.61061782       0.23716414 </v>
   <v>       0.38605882       0.62668057       0.75504700 </v>
   <v>       0.87527382       0.12322501       0.24714982 </v>
   <v>       0.86480928       0.11604141       0.74992376 </v>
   <v>       0.86995100       0.61781929       0.25389754 </v>
   <v>       0.85409310       0.61146769       0.74691079 </v>
   <v>       0.12683382       0.37000829       0.24264434 </v>
   <v>       0.12911527       0.38657217       0.74907910 </v>
   <v>       0.13898480       0.88703963       0.25432015 </v>
   <v>       0.13415363       0.88110160       0.75423987 </v>
   <v>       0.63421627       0.37957835       0.25766572 </v>
   <v>       0.63739969       0.38986833       0.74785345 </v>
   <v>       0.63625207       0.88243804       0.23496204 </v>
   <v>       0.62586757       0.87581075       0.77171615 </v>
   <v>       0.35341005       0.38586862       0.00033240 </v>
   <v>       0.36273236       0.38607145       0.50262546 </v>
   <v>       0.36600981       0.89178529       0.98762114 </v>
   <v>       0.36247597       0.88855011       0.50170706 </v>
   <v>       0.83874856       0.41159132       0.00135784 </v>
   <v>       0.86115679       0.38346238       0.49926105 </v>
   <v>       0.86934680       0.88839041       0.00276590 </v>
   <v>       0.86361944       0.88931435       0.50284456 </v>
   <v>       0.14092030       0.10912036       0.99601109 </v>
   <v>       0.13825473       0.11036417       0.50345838 </v>
   <v>       0.12886014       0.61308123       0.00223296 </v>
   <v>       0.13982910       0.61455513       0.50528165 </v>
   <v>       0.62774025       0.13502644       0.99700202 </v>
   <v>       0.63843563       0.11079637       0.50030782 </v>
   <v>       0.63491222       0.61177874       0.49534947 </v>
   <v>       0.09813569       0.35527378       0.00301796 </v>
   <v>       0.11483905       0.36099927       0.50518491 </v>
   <v>       0.11504790       0.86011795       0.99764863 </v>
   <v>       0.11356385       0.86135820       0.49693385 </v>
   <v>       0.61165951       0.36056740       0.49980523 </v>
   <v>       0.61079098       0.88858171       0.97376347 </v>
   <v>       0.61045813       0.86388167       0.50492734 </v>
   <v>       0.39083287       0.13429454       0.97972044 </v>
   <v>       0.38972636       0.13707744       0.49471384 </v>
   <v>       0.39296868       0.64723823       0.00682210 </v>
   <v>       0.38716313       0.63778136       0.50213762 </v>
   <v>       0.89078891       0.14637926       0.99941161 </v>
   <v>       0.88852761       0.13747237       0.50630761 </v>
   <v>       0.88532757       0.63845271       0.50352601 </v>
   <v>       0.01719965       0.01529493       0.13026777 </v>
   <v>       0.00069042       0.99176423       0.62619445 </v>
   <v>       0.98892373       0.51146580       0.12150074 </v>
   <v>       0.99600974       0.49943862       0.62700813 </v>
   <v>       0.49065869       0.00597163       0.12307462 </v>
   <v>       0.50123345       0.00343234       0.62783259 </v>
   <v>       0.53860540       0.47987634       0.10475834 </v>
   <v>       0.50915356       0.50979351       0.62665626 </v>
   <v>       0.00225458       0.00922245       0.37356987 </v>
   <v>       0.99798669       0.00338366       0.87272731 </v>
   <v>       0.00709059       0.49895920       0.37461424 </v>
   <v>       0.99110408       0.51284826       0.87919151 </v>
   <v>       0.50766355       0.99354829       0.37441914 </v>
   <v>       0.48991725       0.49841383       0.37655872 </v>
   <v>       0.52975915       0.50458602       0.88442011 </v>
   <v>       0.23640678       0.24694671       0.37158154 </v>
   <v>       0.23848972       0.25876858       0.87339398 </v>
   <v>       0.25508458       0.74097660       0.37516872 </v>
   <v>       0.24809522       0.73839438       0.87607880 </v>
   <v>       0.75238707       0.24207839       0.37668206 </v>
   <v>       0.74508067       0.26179419       0.87878101 </v>
   <v>       0.74967172       0.76064940       0.37573851 </v>
   <v>       0.74164703       0.71458146       0.87953454 </v>
   <v>       0.24403818       0.23211079       0.12801472 </v>
   <v>       0.25913308       0.24230786       0.62539952 </v>
   <v>       0.24730664       0.75790732       0.12341613 </v>
   <v>       0.25577977       0.75540062       0.62808484 </v>
   <v>       0.74390402       0.25762273       0.12221803 </v>
   <v>       0.74188300       0.24488608       0.62760369 </v>
   <v>       0.73266048       0.70817579       0.09151288 </v>
   <v>       0.72445993       0.74433496       0.63797240 </v>
  </varray>
 </structure>
 <calculation>
  <scstep>
   <time name="dav">  620.26  620.28</time>
   <time name="total">  627.47  627.52</time>
   <energy>
    <i name="alphaZ">   5600.34423127 </i>
    <i name="ewald"> -61383.60719203 </i>
    <i name="hartreedc"> -17134.50029125 </i>
    <i name="XCdc">   3073.45605025 </i>
    <i name="pawpsdc"> 113328.46141505 </i>
    <i name="pawaedc">-112380.20064962 </i>
    <i name="eentropy">     -0.00000000 </i>
    <i name="bandstr">  -7107.71966935 </i>
    <i name="atom">  74916.81196153 </i>
    <i name="e_fr_energy">  -1086.95414415 </i>
    <i name="e_wo_entrp">  -1086.95414415 </i>
    <i name="e_0_energy">  -1086.95414415 </i>
   </energy>
  </scstep>
  <scstep>
   <time name="diag">   65.07   65.07</time>
   <time name="diis">   61.46   61.45</time>
   <time name="orth">   33.45   33.45</time>
   <time name="total">  167.18  167.22</time>
   <energy>
    <i name="e_fr_energy">  -1086.95414284 </i>
    <i name="e_wo_entrp">  -1086.95414284 </i>
    <i name="e_0_energy">  -1086.95414284 </i>
   </energy>
  </scstep>
  <scstep>
   <time name="diag">   65.05   65.05</time>
   <time name="diis">   59.14   59.15</time>
   <time name="orth">   33.46   33.46</time>
   <time name="total">  164.88  164.94</time>
   <energy>
    <i name="e_fr_energy">  -1086.95414309 </i>
    <i name="e_wo_entrp">  -1086.95414309 </i>
    <i name="e_0_energy">  -1086.95414309 </i>
   </energy>
  </scstep>
  <scstep>
   <time name="diag">   65.03   65.03</time>
   <time name="diis">   48.93   48.93</time>
   <time name="orth">   33.46   33.46</time>
   <time name="total">  154.62  154.67</time>
   <energy>
    <i name="e_fr_energy">  -1086.95414321 </i>
    <i name="e_wo_entrp">  -1086.95414321 </i>
    <i name="e_0_energy">  -1086.95414321 </i>
   </energy>
  </scstep>
  <scstep>
   <time name="diag">   65.12   65.12</time>
   <time name="diis">   48.59   48.59</time>
   <time name="orth">   33.41   33.41</time>
   <time name="total">  154.36  154.38</time>
   <energy>
    <i name="e_fr_energy">  -1086.95414325 </i>
    <i name="e_wo_entrp">  -1086.95414325 </i>
    <i name="e_0_energy">  -1086.95414325 </i>
   </energy>
  </scstep>
  <scstep>
   <time name="diag">   65.00   65.00</time>
   <time name="diis">   45.87   45.87</time>
   <time name="orth">   33.41   33.41</time>
   <time name="total">  151.51  151.52</time>
   <energy>
    <i name="e_fr_energy">  -1086.95414332 </i>
    <i name="e_wo_entrp">  -1086.95414332 </i>
    <i name="e_0_energy">  -1086.95414332 </i>
   </energy>
  </scstep>
  <scstep>
   <time name="diag">   64.92   64.93</time>
   <time name="diis">   45.50   45.50</time>
   <time name="orth">   33.56   33.56</time>
   <time name="total">  151.13  151.19</time>
   <energy>
    <i name="e_fr_energy">  -1086.95414334 </i>
    <i name="e_wo_entrp">  -1086.95414334 </i>
    <i name="e_0_energy">  -1086.95414334 </i>
   </energy>
  </scstep>
  <scstep>
   <time name="diag">   64.97   64.97</time>
   <time name="diis">   43.66   43.66</time>
   <time name="orth">   33.53   33.53</time>
   <time name="total">  143.21  143.32</time>
   <energy>
    <i name="alphaZ">   5600.34423127 </i>
    <i name="ewald"> -61383.60719203 </i>
    <i name="hartreedc"> -17134.50023303 </i>
    <i name="XCdc">   3073.45581872 </i>
    <i name="pawpsdc"> 113328.02860767 </i>
    <i name="pawaedc">-112379.76811520 </i>
    <i name="eentropy">     -0.00000000 </i>
    <i name="bandstr">  -7107.71922228 </i>
    <i name="atom">  74916.81196153 </i>
    <i name="e_fr_energy">  -1086.95414335 </i>
    <i name="e_wo_entrp">  -1086.95414335 </i>
    <i name="e_0_energy">  -1086.95414335 </i>
   </energy>
  </scstep>
  <structure>
   <crystal>
    <varray name="basis" >
     <v>      11.23908063       0.01939324       0.00677910 </v>
     <v>       0.01939700      11.23880141      -0.00723847 </v>
     <v>       0.00965129      -0.01034239      15.93729195 </v>
    </varray>
    <i name="volume">   2013.09225758 </i>
    <varray name="rec_basis" >
     <v>       0.08897555      -0.00015360      -0.00005398 </v>
     <v>      -0.00015357       0.08897776       0.00005783 </v>
     <v>      -0.00003792       0.00004048       0.06274597 </v>
    </varray>
   </crystal>
   <varray name="positions" >
    <v>       0.00330414       0.24442040       0.12940029 </v>
    <v>       0.00312529       0.25229885       0.62455921 </v>
    <v>       0.00442361       0.75245954       0.12936058 </v>
    <v>       0.00403945       0.74756892       0.61877598 </v>
    <v>       0.50603054       0.25256236       0.12964494 </v>
    <v>       0.49583538       0.25459541       0.61991062 </v>
    <v>       0.50595042       0.74137911       0.13650697 </v>
    <v>       0.49540926       0.74872060       0.61759787 </v>
    <v>       0.99520660       0.25714563       0.38218354 </v>
    <v>       0.01149216       0.24302484       0.86981285 </v>
    <v>       0.99357175       0.74488747       0.37619300 </v>
    <v>       0.01482652       0.75671885       0.87192174 </v>
    <v>       0.50630166       0.25025738       0.37486045 </v>
    <v>       0.49083980       0.25887778       0.86863177 </v>
    <v>       0.50630982       0.74671351       0.37557365 </v>
    <v>       0.48894265       0.74592977       0.87681221 </v>
    <v>       0.24661924       0.99649115       0.12539618 </v>
    <v>       0.24567061       0.00230619       0.62396070 </v>
    <v>       0.24386993       0.50169900       0.12796297 </v>
    <v>       0.24716981       0.49509924       0.62344434 </v>
    <v>       0.75830733       0.00400396       0.13378652 </v>
    <v>       0.75537994       0.00249361       0.61842952 </v>
    <v>       0.75235818       0.49854190       0.14041543 </v>
    <v>       0.75325754       0.50396424       0.61647142 </v>
    <v>       0.25234084       0.99579425       0.37837794 </v>
    <v>       0.24157315       0.00610578       0.87498288 </v>
    <v>       0.24956235       0.50217000       0.37784736 </v>
    <v>       0.24242995       0.49362078       0.86978240 </v>
    <v>       0.74857551       0.99518674       0.37300930 </v>
    <v>       0.76164708       0.01489311       0.87507918 </v>
    <v>       0.75084289       0.50588878       0.37627206 </v>
    <v>       0.75797098       0.49107450       0.86572091 </v>
    <v>       0.99916156       0.99893957       0.49764478 </v>
    <v>       0.00425897       0.48759858       0.00117203 </v>
    <v>       0.49506833       0.00762695       0.00884390 </v>
    <v>       0.50215885       0.99825953       0.49432323 </v>
    <v>       0.50127479       0.50167738       0.49960912 </v>
    <v>       0.24870613       0.24937248       0.50112897 </v>
    <v>       0.24901836       0.75243972       0.00056617 </v>
    <v>       0.24977131       0.74798106       0.49916185 </v>
    <v>       0.76319617       0.24823416       0.00071529 </v>
    <v>       0.75042134       0.25013062       0.50025611 </v>
    <v>       0.26465932       0.25671913       0.24868085 </v>
    <v>       0.25459737       0.75038165       0.25020904 </v>
    <v>       0.25394450       0.75003901       0.75054394 </v>
    <v>       0.74970176       0.24911165       0.25278612 </v>
    <v>       0.74861087       0.25298533       0.74929319 </v>
    <v>       0.75959629       0.75823145       0.75454668 </v>
    <v>       0.00458147       0.00442567       0.74942250 </v>
    <v>       0.99830085       0.50120802       0.25275304 </v>
    <v>       0.99953809       0.49971089       0.74657095 </v>
    <v>       0.50038082       0.00031849       0.74299676 </v>
    <v>       0.00917406       0.00076807       0.00234056 </v>
    <v>       0.99932474       0.50158661       0.50096153 </v>
    <v>       0.47354572       0.50060979       0.99867063 </v>
    <v>       0.24902898       0.24222064       0.99737701 </v>
    <v>       0.74289964       0.78274170       0.99031178 </v>
    <v>       0.74875512       0.75040949       0.49949699 </v>
    <v>       0.24995658       0.24903297       0.75081495 </v>
    <v>       0.74690188       0.74906891       0.25578518 </v>
    <v>       0.99109432       0.98538622       0.25011706 </v>
    <v>       0.50089927       0.99536155       0.25119550 </v>
    <v>       0.50525633       0.50156172       0.25430903 </v>
    <v>       0.49263141       0.48934355       0.74780053 </v>
    <v>       0.11729698       0.13144934       0.74575014 </v>
    <v>       0.12044766       0.62913183       0.24682492 </v>
    <v>       0.11855981       0.63326080       0.74871201 </v>
    <v>       0.61761260       0.13343800       0.24751650 </v>
    <v>       0.61741584       0.12668226       0.76649136 </v>
    <v>       0.61797265       0.63102968       0.25168644 </v>
    <v>       0.38888744       0.36331236       0.24392374 </v>
    <v>       0.38131081       0.36870231       0.75163546 </v>
    <v>       0.38839664       0.85808149       0.25139242 </v>
    <v>       0.38393096       0.87297898       0.76303449 </v>
    <v>       0.88183914       0.36877326       0.25099404 </v>
    <v>       0.88460753       0.36260206       0.75276709 </v>
    <v>       0.88044696       0.86190842       0.23658558 </v>
    <v>       0.88360824       0.86364895       0.75517164 </v>
    <v>       0.35212987       0.10782031       0.25462032 </v>
    <v>       0.37580725       0.11336759       0.76617536 </v>
    <v>       0.36756014       0.61061782       0.23716414 </v>
    <v>       0.38605882       0.62668057       0.75504700 </v>
    <v>       0.87527382       0.12322501       0.24714982 </v>
    <v>       0.86480928       0.11604141       0.74992376 </v>
    <v>       0.86995100       0.61781929       0.25389754 </v>
    <v>       0.85409310       0.61146769       0.74691079 </v>
    <v>       0.12683382       0.37000829       0.24264434 </v>
    <v>       0.12911527       0.38657217       0.74907910 </v>
    <v>       0.13898480       0.88703963       0.25432015 </v>
    <v>       0.13415363       0.88110160       0.75423987 </v>
    <v>       0.63421627       0.37957835       0.25766572 </v>
    <v>       0.63739969       0.38986833       0.74785345 </v>
    <v>       0.63625207       0.88243804       0.23496204 </v>
    <v>       0.62586757       0.87581075       0.77171615 </v>
    <v>       0.35341005       0.38586862       0.00033240 </v>
    <v>       0.36273236       0.38607145       0.50262546 </v>
    <v>       0.36600981       0.89178529       0.98762114 </v>
    <v>       0.36247597       0.88855011       0.50170706 </v>
    <v>       0.83874856       0.41159132       0.00135784 </v>
    <v>       0.86115679       0.38346238       0.49926105 </v>
    <v>       0.86934680       0.88839041       0.00276590 </v>
    <v>       0.86361944       0.88931435       0.50284456 </v>
    <v>       0.14092030       0.10912036       0.99601109 </v>
    <v>       0.13825473       0.11036417       0.50345838 </v>
    <v>       0.12886014       0.61308123       0.00223296 </v>
    <v>       0.13982910       0.61455513       0.50528165 </v>
    <v>       0.62774025       0.13502644       0.99700202 </v>
    <v>       0.63843563       0.11079637       0.50030782 </v>
    <v>       0.63491222       0.61177874       0.49534947 </v>
    <v>       0.09813569       0.35527378       0.00301796 </v>
    <v>       0.11483905       0.36099927       0.50518491 </v>
    <v>       0.11504790       0.86011795       0.99764863 </v>
    <v>       0.11356385       0.86135820       0.49693385 </v>
    <v>       0.61165951       0.36056740       0.49980523 </v>
    <v>       0.61079098       0.88858171       0.97376347 </v>
    <v>       0.61045813       0.86388167       0.50492734 </v>
    <v>       0.39083287       0.13429454       0.97972044 </v>
    <v>       0.38972636       0.13707744       0.49471384 </v>
    <v>       0.39296868       0.64723823       0.00682210 </v>
    <v>       0.38716313       0.63778136       0.50213762 </v>
    <v>       0.89078891       0.14637926       0.99941161 </v>
    <v>       0.88852761       0.13747237       0.50630761 </v>
    <v>       0.88532757       0.63845271       0.50352601 </v>
    <v>       0.01719965       0.01529493       0.13026777 </v>
    <v>       0.00069042       0.99176423       0.62619445 </v>
    <v>       0.98892373       0.51146580       0.12150074 </v>
    <v>       0.99600974       0.49943862       0.62700813 </v>
    <v>       0.49065869       0.00597163       0.12307462 </v>
    <v>       0.50123345       0.00343234       0.62783259 </v>
    <v>       0.53860540       0.47987634       0.10475834 </v>
    <v>       0.50915356       0.50979351       0.62665626 </v>
    <v>       0.00225458       0.00922245       0.37356987 </v>
    <v>       0.99798669       0.00338366       0.87272731 </v>
    <v>       0.00709059       0.49895920       0.37461424 </v>
    <v>       0.99110408       0.51284826       0.87919151 </v>
    <v>       0.50766355       0.99354829       0.37441914 </v>
    <v>       0.48991725       0.49841383       0.37655872 </v>
    <v>       0.52975915       0.50458602       0.88442011 </v>
    <v>       0.23640678       0.24694671       0.37158154 </v>
    <v>       0.23848972       0.25876858       0.87339398 </v>
    <v>       0.25508458       0.74097660       0.37516872 </v>
    <v>       0.24809522       0.73839438       0.87607880 </v>
    <v>       0.75238707       0.24207839       0.37668206 </v>
    <v>       0.74508067       0.26179419       0.87878101 </v>
    <v>       0.74967172       0.76064940       0.37573851 </v>
    <v>       0.74164703       0.71458146       0.87953454 </v>
    <v>       0.24403818       0.23211079       0.12801472 </v>
    <v>       0.25913308       0.24230786       0.62539952 </v>
    <v>       0.24730664       0.75790732       0.12341613 </v>
    <v>       0.25577977       0.75540062       0.62808484 </v>
    <v>       0.74390402       0.25762273       0.12221803 </v>
    <v>       0.74188300       0.24488608       0.62760369 </v>
    <v>       0.73266048       0.70817579       0.09151288 </v>
    <v>       0.72445993       0.74433496       0.63797240 </v>
   </varray>
  </structure>
  <varray name="forces" >
   <v>      -0.00827485      -0.00514625      -0.00645697 </v>
   <v>      -0.00354735      -0.00355064       0.00617329 </v>
   <v>       0.00991560       0.01120760      -0.00671295 </v>
   <v>       0.00130416      -0.00268570      -0.00442613 </v>
   <v>      -0.00683673      -0.00186057      -0.00560429 </v>
   <v>       0.00252144       0.01471494       0.01139206 </v>
   <v>      -0.01154680       0.00514860      -0.00215645 </v>
   <v>       0.00354676       0.00308990      -0.00030515 </v>
   <v>      -0.01296669       0.01467180       0.00303224 </v>
   <v>       0.00535407       0.00510160      -0.00483727 </v>
   <v>      -0.00587270      -0.00209664       0.00824360 </v>
   <v>       0.00616913      -0.00472749       0.00892083 </v>
   <v>       0.00070545      -0.00377951       0.00899163 </v>
   <v>      -0.00977562       0.01241750      -0.00496996 </v>
   <v>       0.00317532       0.01513940      -0.00936255 </v>
   <v>      -0.00787358       0.01026016       0.01225243 </v>
   <v>       0.01686054      -0.00687883      -0.02377774 </v>
   <v>      -0.00292194      -0.01033960       0.00269483 </v>
   <v>       0.01728008      -0.01092313      -0.00542012 </v>
   <v>       0.00316107       0.00310262       0.00355267 </v>
   <v>      -0.00813281      -0.01149702       0.00858593 </v>
   <v>      -0.00702049       0.00159887      -0.00482179 </v>
   <v>       0.00130309       0.00880706      -0.00474265 </v>
   <v>       0.00203248      -0.00653196       0.00364154 </v>
   <v>       0.01089915      -0.00710021       0.00494027 </v>
   <v>      -0.01129295       0.00743474      -0.00582469 </v>
   <v>      -0.01064492      -0.00601798       0.00726773 </v>
   <v>       0.00823701      -0.01570029      -0.01068266 </v>
   <v>      -0.00115314       0.01469359       0.00443471 </v>
   <v>       0.01887398       0.00936513       0.00578650 </v>
   <v>       0.01139948      -0.00450848      -0.00422907 </v>
   <v>      -0.00117163      -0.00544908      -0.01024100 </v>
   <v>      -0.01474172       0.01380302       0.03028863 </v>
   <v>      -0.00162736       0.02155863       0.01906142 </v>
   <v>      -0.01678890      -0.00407945       0.00739442 </v>
   <v>      -0.00536068      -0.01755357       0.01720768 </v>
   <v>      -0.00435186      -0.00156352       0.00857978 </v>
   <v>       0.01567934      -0.01325126       0.02196099 </v>
   <v>      -0.00193111      -0.00548492      -0.00434630 </v>
   <v>       0.00386583       0.01742511       0.01728263 </v>
   <v>       0.01588841       0.00098758       0.00524126 </v>
   <v>       0.01409616      -0.01140054      -0.01230351 </v>
   <v>       0.02240387       0.02663139      -0.03426451 </v>
   <v>       0.00422388       0.00189352      -0.00373577 </v>
   <v>       0.00977717      -0.00135960      -0.01875453 </v>
   <v>       0.00611277       0.00716868       0.01202030 </v>
   <v>      -0.00876539       0.01524866      -0.00283870 </v>
   <v>       0.00080160      -0.02675199      -0.03373548 </v>
   <v>       0.03456953       0.01722584      -0.02159637 </v>
   <v>       0.01053447       0.01483992       0.02370817 </v>
   <v>       0.01480272      -0.01072466      -0.00594583 </v>
   <v>      -0.01128749       0.01055525       0.00369907 </v>
   <v>       0.00528805      -0.00044007       0.00901493 </v>
   <v>      -0.00303308       0.00695017      -0.00383021 </v>
   <v>       0.00080234       0.00127508       0.00791903 </v>
   <v>       0.00557300       0.00095861      -0.00162022 </v>
   <v>      -0.01486133      -0.01637292       0.00428777 </v>
   <v>       0.00823298       0.00102065      -0.00674117 </v>
   <v>      -0.00125687      -0.00268993      -0.00574685 </v>
   <v>      -0.01500475       0.01120563       0.00833981 </v>
   <v>       0.00740043       0.00632643      -0.00085261 </v>
   <v>       0.00312677      -0.00161844       0.00524018 </v>
   <v>       0.00000652      -0.00567401       0.01383617 </v>
   <v>       0.00512537      -0.00114450      -0.01543934 </v>
   <v>      -0.01299514      -0.00759002       0.01334956 </v>
   <v>      -0.00464586       0.00088474      -0.00509786 </v>
   <v>      -0.01168580      -0.00531189      -0.00266519 </v>
   <v>      -0.00120678      -0.01123526      -0.00048754 </v>
   <v>      -0.00679931      -0.01720526      -0.00698736 </v>
   <v>       0.00703836       0.00254499      -0.00978772 </v>
   <v>      -0.00122596       0.00064097       0.00864299 </v>
   <v>      -0.00872116      -0.01671511       0.00438800 </v>
   <v>      -0.02583350       0.00557116       0.00254126 </v>
   <v>      -0.00136215       0.00711470       0.01218473 </v>
   <v>       0.00049990       0.00207510       0.00670827 </v>
   <v>       0.01088014       0.00524875      -0.00343406 </v>
   <v>      -0.00677327      -0.02841166      -0.00195247 </v>
   <v>       0.01361718       0.00802211       0.00117485 </v>
   <v>       0.00408067       0.00193528       0.00535498 </v>
   <v>       0.00193656       0.01749830       0.00849629 </v>
   <v>      -0.00137975       0.00403654       0.00092826 </v>
   <v>       0.00508038       0.00545229      -0.00615176 </v>
   <v>       0.01038947      -0.00325206      -0.01537348 </v>
   <v>      -0.00199133       0.00148158      -0.01071239 </v>
   <v>      -0.01509127       0.00011257       0.00819908 </v>
   <v>      -0.01749942       0.01725859       0.00060528 </v>
   <v>       0.00097946      -0.00832617      -0.01939924 </v>
   <v>      -0.01450341      -0.00718210       0.01018805 </v>
   <v>      -0.00317775       0.01434193       0.00341466 </v>
   <v>      -0.00554081      -0.00902540       0.00840063 </v>
   <v>      -0.00971982       0.02278747       0.00082962 </v>
   <v>       0.01330111      -0.01200352       0.00546191 </v>
   <v>       0.00937689       0.00073444       0.01190569 </v>
   <v>       0.00538055      -0.00714951      -0.01491836 </v>
   <v>       0.01084963       0.00292504      -0.00445403 </v>
   <v>      -0.00970043      -0.00941683       0.00208742 </v>
   <v>       0.01586097       0.00213021      -0.00634986 </v>
   <v>       0.00344714       0.00016413      -0.01472089 </v>
   <v>       0.01362712      -0.00323390      -0.00001507 </v>
   <v>       0.00407636      -0.00127485      -0.00326678 </v>
   <v>       0.02929291      -0.00425144       0.00199085 </v>
   <v>       0.00312001      -0.00417504       0.00313659 </v>
   <v>      -0.03227665       0.00062984      -0.00105686 </v>
   <v>       0.01031230       0.00305474      -0.01262208 </v>
   <v>      -0.01262763      -0.00049862      -0.00364837 </v>
   <v>       0.00599030      -0.00377849       0.00545121 </v>
   <v>      -0.00820353       0.00028562      -0.00923394 </v>
   <v>      -0.00335245      -0.00194920       0.00496512 </v>
   <v>       0.01115410      -0.00083038       0.00033331 </v>
   <v>       0.01377816      -0.01420573       0.01130746 </v>
   <v>      -0.00258186       0.01382038      -0.01481877 </v>
   <v>       0.00052989       0.01481706      -0.00970887 </v>
   <v>       0.00388629      -0.00360937      -0.00403608 </v>
   <v>      -0.00858578       0.00071504      -0.01613878 </v>
   <v>       0.00549383      -0.00045160      -0.01483268 </v>
   <v>       0.00510940       0.00611528       0.00162939 </v>
   <v>      -0.00629137      -0.01078392       0.01004934 </v>
   <v>       0.00155336       0.00689880       0.00488029 </v>
   <v>       0.00342774      -0.01175751       0.00556893 </v>
   <v>      -0.01222184       0.00484843       0.00764909 </v>
   <v>      -0.00063520      -0.03673767       0.01882096 </v>
   <v>      -0.00390914       0.00456447       0.00142105 </v>
   <v>      -0.00364141      -0.00459465      -0.01186597 </v>
   <v>       0.00243842      -0.00248173      -0.00123802 </v>
   <v>       0.00450035       0.00082725       0.00527642 </v>
   <v>       0.00146992       0.00394456      -0.00771166 </v>
   <v>       0.00618843       0.00066330      -0.00701893 </v>
   <v>       0.00708594      -0.00545143       0.02317816 </v>
   <v>      -0.00975234       0.00073621      -0.01285775 </v>
   <v>      -0.02094041      -0.01053828       0.00694454 </v>
   <v>      -0.00341890      -0.00708880       0.00108335 </v>
   <v>      -0.00422145       0.00427547      -0.02628058 </v>
   <v>      -0.01817756       0.00500658       0.01525363 </v>
   <v>      -0.00121401       0.00233507       0.00551244 </v>
   <v>       0.00669846      -0.00150691       0.00226472 </v>
   <v>      -0.00516384       0.00697564       0.00205064 </v>
   <v>      -0.00702101       0.00689499      -0.00898348 </v>
   <v>      -0.00699679      -0.00328854       0.00229922 </v>
   <v>      -0.00954630      -0.00303467       0.00537119 </v>
   <v>       0.00492334      -0.01492456       0.00784428 </v>
   <v>      -0.00230288       0.00121061      -0.01314419 </v>
   <v>      -0.00095846      -0.00943700       0.02346882 </v>
   <v>       0.00486630       0.00039761       0.01121101 </v>
   <v>       0.01076102      -0.01821382       0.00895233 </v>
   <v>       0.00463268       0.00750343      -0.00147791 </v>
   <v>      -0.01562083       0.02574532      -0.02887721 </v>
   <v>      -0.00677090      -0.00890692       0.01021598 </v>
   <v>      -0.00981309      -0.00164828      -0.00932322 </v>
   <v>      -0.01240747       0.00379947       0.00327733 </v>
   <v>      -0.00297509       0.00566884      -0.00443784 </v>
   <v>       0.00242911       0.00791021      -0.00898096 </v>
   <v>      -0.00008945      -0.00321707      -0.00853592 </v>
   <v>      -0.01295416      -0.00407409      -0.00267826 </v>
   <v>       0.02145334      -0.00676076       0.01034356 </v>
  </varray>
  <varray name="stress" >
   <v>      -0.03717410      -0.03779322      -0.06659992 </v>
   <v>      -0.03779324      -0.01175083       0.02511774 </v>
   <v>      -0.06659953       0.02511739      -0.15116596 </v>
  </varray>
  <energy>
   <i name="e_fr_energy">  -1086.95414335 </i>
   <i name="e_wo_entrp">  -1086.95414335 </i>
   <i name="e_0_energy">     -0.00000000 </i>
  </energy>
  <time name="totalsc"> 1978.51 1980.36</time>
 </calculation>
 <calculation>
  <scstep>
   <time name="dav">  581.62  581.65</time>
   <time name="total">  588.76  588.88</time>
   <energy>
    <i name="alphaZ">   5600.78533289 </i>
    <i name="ewald"> -61383.49155583 </i>
    <i name="hartreedc"> -17136.64550816 </i>
    <i name="XCdc">   3073.56238676 </i>
    <i name="pawpsdc"> 113328.00314581 </i>
    <i name="pawaedc">-112379.74263256 </i>
    <i name="eentropy">     -0.00000000 </i>
    <i name="bandstr">  -7106.23747239 </i>
    <i name="atom">  74916.81196153 </i>
    <i name="e_fr_energy">  -1086.95434195 </i>
    <i name="e_wo_entrp">  -1086.95434195 </i>
    <i name="e_0_energy">  -1086.95434195 </i>
   </energy>
  </scstep>
  <scstep>
   <time name="diag">   65.03   65.03</time>
   <time name="diis">  104.66  104.67</time>
   <time name="orth">   33.49   33.49</time>
   <time name="total">  210.44  210.45</time>
   <energy>
    <i name="e_fr_energy">  -1086.95538632 </i>
    <i name="e_wo_entrp">  -1086.95538632 </i>
    <i name="e_0_energy">  -1086.95538632 </i>
   </energy>
  </scstep>
  <scstep>
   <time name="diag">   65.06   65.06</time>
   <time name="diis">   94.60   94.61</time>
   <time name="orth">   33.49   33.49</time>
   <time name="total">  200.38  200.45</time>
   <energy>
    <i name="e_fr_energy">  -1086.95538570 </i>
    <i name="e_wo_entrp">  -1086.95538570 </i>
    <i name="e_0_energy">  -1086.95538570 </i>
   </energy>
  </scstep>
  <scstep>
   <time name="diag">   65.04   65.05</time>
   <time name="diis">   66.98   66.99</time>
   <time name="orth">   33.50   33.50</time>
   <time name="total">  172.73  172.79</time>
   <energy>
    <i name="e_fr_energy">  -1086.95531186 </i>
    <i name="e_wo_entrp">  -1086.95531186 </i>
    <i name="e_0_energy">  -1086.95531186 </i>
   </energy>
  </scstep>
  <scstep>
   <time name="diag">   64.99   65.00</time>
   <time name="diis">   64.32   64.32</time>
   <time name="orth">   33.50   33.50</time>
   <time name="total">  170.07  170.15</time>
   <energy>
    <i name="e_fr_energy">  -1086.95529462 </i>
    <i name="e_wo_entrp">  -1086.95529462 </i>
    <i name="e_0_energy">  -1086.95529462 </i>
   </energy>
  </scstep>
  <scstep>
   <time name="diag">   65.02   65.02</time>
   <time name="diis">   63.33   63.33</time>
   <time name="orth">   33.49   33.49</time>
   <time name="total">  169.09  169.20</time>
   <energy>
    <i name="e_fr_energy">  -1086.95529754 </i>
    <i name="e_wo_entrp">  -1086.95529754 </i>
    <i name="e_0_energy">  -1086.95529754 </i>
   </energy>
  </scstep>
  <scstep>
   <time name="diag">   64.88   64.88</time>
   <time name="diis">   61.28   61.29</time>
   <time name="orth">   33.54   33.54</time>
   <time name="total">  166.85  166.90</time>
   <energy>
    <i name="e_fr_energy">  -1086.95529876 </i>
    <i name="e_wo_entrp">  -1086.95529876 </i>
    <i name="e_0_energy">  -1086.95529876 </i>
   </energy>
  </scstep>
  <scstep>
   <time name="diag">   64.85   64.86</time>
   <time name="diis">   58.56   58.57</time>
   <time name="orth">   33.52   33.52</time>
   <time name="total">  157.98  158.03</time>
   <energy>
    <i name="alphaZ">   5600.78533289 </i>
    <i name="ewald"> -61383.49155583 </i>
    <i name="hartreedc"> -17135.48430774 </i>
    <i name="XCdc">   3073.48644627 </i>
    <i name="pawpsdc"> 113339.74715522 </i>
    <i name="pawaedc">-112391.50771360 </i>
    <i name="eentropy">     -0.00000000 </i>
    <i name="bandstr">  -7107.30261844 </i>
    <i name="atom">  74916.81196153 </i>
    <i name="e_fr_energy">  -1086.95529971 </i>
    <i name="e_wo_entrp">  -1086.95529971 </i>
    <i name="e_0_energy">  -1086.95529971 </i>
   </energy>
  </scstep>
  <structure>
   <crystal>
    <varray name="basis" >
     <v>      11.23891571       0.01922603       0.00648426 </v>
     <v>       0.01922972      11.23874907      -0.00712744 </v>
     <v>       0.00923352      -0.01018493      15.93634333 </v>
    </varray>
    <i name="volume">   2012.93371227 </i>
    <varray name="rec_basis" >
     <v>       0.08897685      -0.00015227      -0.00005165 </v>
     <v>      -0.00015224       0.08897817       0.00005695 </v>
     <v>      -0.00003627       0.00003986       0.06274970 </v>
    </varray>
   </crystal>
   <varray name="positions" >
    <v>       0.00326867       0.24439835       0.12938075 </v>
    <v>       0.00311007       0.25228365       0.62457789 </v>
    <v>       0.00446611       0.75250755       0.12934026 </v>
    <v>       0.00404508       0.74755737       0.61876257 </v>
    <v>       0.50600122       0.25255441       0.12962799 </v>
    <v>       0.49584606       0.25465859       0.61994512 </v>
    <v>       0.50590082       0.74140129       0.13650047 </v>
    <v>       0.49542446       0.74873384       0.61759694 </v>
    <v>       0.99515082       0.25720871       0.38219277 </v>
    <v>       0.01151511       0.24304668       0.86979821 </v>
    <v>       0.99354653       0.74487854       0.37621796 </v>
    <v>       0.01485301       0.75669853       0.87194873 </v>
    <v>       0.50630469       0.25024117       0.37488765 </v>
    <v>       0.49079776       0.25893114       0.86861676 </v>
    <v>       0.50632336       0.74677844       0.37554534 </v>
    <v>       0.48890875       0.74597391       0.87684933 </v>
    <v>       0.24669173       0.99646143       0.12532416 </v>
    <v>       0.24565814       0.00226184       0.62396885 </v>
    <v>       0.24394420       0.50165197       0.12794651 </v>
    <v>       0.24718335       0.49511254       0.62345509 </v>
    <v>       0.75827248       0.00395469       0.13381251 </v>
    <v>       0.75534980       0.00250051       0.61841494 </v>
    <v>       0.75236372       0.49857968       0.14040109 </v>
    <v>       0.75326630       0.50393619       0.61648243 </v>
    <v>       0.25238766       0.99576370       0.37839287 </v>
    <v>       0.24152463       0.00613777       0.87496529 </v>
    <v>       0.24951669       0.50214427       0.37786937 </v>
    <v>       0.24246545       0.49355329       0.86975002 </v>
    <v>       0.74857044       0.99524983       0.37302276 </v>
    <v>       0.76172801       0.01493319       0.87509668 </v>
    <v>       0.75089187       0.50586933       0.37625923 </v>
    <v>       0.75796602       0.49105109       0.86568991 </v>
    <v>       0.99909810       0.99899901       0.49773652 </v>
    <v>       0.00425178       0.48769119       0.00122977 </v>
    <v>       0.49499628       0.00760958       0.00886631 </v>
    <v>       0.50213592       0.99818427       0.49437529 </v>
    <v>       0.50125610       0.50167072       0.49963510 </v>
    <v>       0.24877348       0.24931554       0.50119539 </v>
    <v>       0.24901013       0.75241618       0.00055301 </v>
    <v>       0.24978773       0.74805588       0.49921419 </v>
    <v>       0.76326434       0.24823829       0.00073113 </v>
    <v>       0.75048197       0.25008154       0.50021882 </v>
    <v>       0.26475538       0.25683319       0.24857714 </v>
    <v>       0.25461549       0.75038973       0.25019773 </v>
    <v>       0.25398653       0.75003305       0.75048715 </v>
    <v>       0.74972791       0.24914241       0.25282251 </v>
    <v>       0.74857314       0.25305084       0.74928464 </v>
    <v>       0.75960001       0.75811651       0.75444451 </v>
    <v>       0.00472978       0.00449930       0.74935710 </v>
    <v>       0.99834590       0.50127171       0.25282481 </v>
    <v>       0.99960173       0.49966472       0.74655290 </v>
    <v>       0.50033228       0.00036389       0.74300800 </v>
    <v>       0.00919674       0.00076616       0.00236784 </v>
    <v>       0.99931168       0.50161646       0.50094995 </v>
    <v>       0.47354913       0.50061528       0.99869460 </v>
    <v>       0.24905290       0.24222470       0.99737210 </v>
    <v>       0.74283596       0.78267154       0.99032476 </v>
    <v>       0.74879047       0.75041379       0.49947657 </v>
    <v>       0.24995122       0.24902142       0.75079755 </v>
    <v>       0.74683737       0.74911715       0.25581048 </v>
    <v>       0.99112604       0.98541332       0.25011448 </v>
    <v>       0.50091269       0.99535460       0.25121135 </v>
    <v>       0.50525637       0.50153740       0.25435090 </v>
    <v>       0.49265346       0.48933856       0.74775379 </v>
    <v>       0.11724122       0.13141689       0.74579055 </v>
    <v>       0.12042773       0.62913565       0.24680950 </v>
    <v>       0.11850970       0.63323807       0.74870396 </v>
    <v>       0.61760751       0.13338978       0.24751501 </v>
    <v>       0.61738680       0.12660844       0.76647018 </v>
    <v>       0.61800287       0.63104053       0.25165680 </v>
    <v>       0.38888215       0.36331515       0.24394990 </v>
    <v>       0.38127348       0.36863064       0.75164873 </v>
    <v>       0.38828570       0.85810560       0.25140018 </v>
    <v>       0.38392503       0.87300956       0.76307139 </v>
    <v>       0.88184125       0.36878218       0.25101435 </v>
    <v>       0.88465420       0.36262450       0.75275668 </v>
    <v>       0.88041810       0.86178651       0.23657963 </v>
    <v>       0.88366663       0.86368328       0.75517519 </v>
    <v>       0.35214736       0.10782861       0.25463653 </v>
    <v>       0.37581541       0.11344271       0.76620110 </v>
    <v>       0.36755419       0.61063516       0.23716696 </v>
    <v>       0.38608060       0.62670392       0.75502838 </v>
    <v>       0.87531848       0.12321093       0.24710326 </v>
    <v>       0.86480075       0.11604776       0.74989134 </v>
    <v>       0.86988620       0.61781990       0.25392238 </v>
    <v>       0.85401785       0.61154190       0.74691268 </v>
    <v>       0.12683813       0.36997248       0.24258560 </v>
    <v>       0.12905304       0.38654147       0.74910995 </v>
    <v>       0.13897105       0.88710122       0.25433052 </v>
    <v>       0.13412989       0.88106292       0.75426529 </v>
    <v>       0.63417438       0.37967624       0.25766829 </v>
    <v>       0.63745685       0.38981672       0.74786993 </v>
    <v>       0.63629228       0.88244115       0.23499807 </v>
    <v>       0.62589076       0.87577998       0.77167096 </v>
    <v>       0.35345661       0.38588109       0.00031891 </v>
    <v>       0.36269079       0.38603111       0.50263177 </v>
    <v>       0.36607790       0.89179430       0.98760190 </v>
    <v>       0.36249080       0.88855075       0.50166250 </v>
    <v>       0.83880708       0.41157734       0.00135776 </v>
    <v>       0.86117431       0.38345687       0.49925115 </v>
    <v>       0.86947257       0.88837195       0.00277186 </v>
    <v>       0.86363285       0.88929641       0.50285404 </v>
    <v>       0.14078175       0.10912330       0.99600796 </v>
    <v>       0.13829901       0.11037717       0.50342016 </v>
    <v>       0.12880595       0.61307917       0.00222194 </v>
    <v>       0.13985482       0.61453888       0.50529814 </v>
    <v>       0.62770506       0.13502770       0.99697409 </v>
    <v>       0.63842124       0.11078804       0.50032285 </v>
    <v>       0.63496010       0.61177510       0.49535046 </v>
    <v>       0.09819491       0.35521273       0.00305213 </v>
    <v>       0.11482790       0.36105857       0.50514008 </v>
    <v>       0.11505009       0.86018152       0.99761926 </v>
    <v>       0.11358056       0.86134267       0.49692161 </v>
    <v>       0.61162269       0.36057049       0.49975639 </v>
    <v>       0.61081460       0.88857969       0.97371856 </v>
    <v>       0.61048002       0.86390789       0.50493228 </v>
    <v>       0.39080592       0.13424833       0.97975085 </v>
    <v>       0.38973297       0.13710705       0.49472863 </v>
    <v>       0.39298347       0.64718775       0.00683893 </v>
    <v>       0.38711061       0.63780229       0.50216080 </v>
    <v>       0.89078641       0.14622162       0.99946851 </v>
    <v>       0.88851079       0.13749199       0.50631193 </v>
    <v>       0.88531200       0.63843298       0.50349009 </v>
    <v>       0.01721013       0.01528426       0.13026402 </v>
    <v>       0.00070972       0.99176776       0.62621042 </v>
    <v>       0.98893003       0.51148270       0.12147740 </v>
    <v>       0.99603632       0.49944140       0.62698688 </v>
    <v>       0.49068909       0.00594824       0.12314475 </v>
    <v>       0.50119161       0.00343554       0.62779369 </v>
    <v>       0.53851557       0.47983128       0.10477938 </v>
    <v>       0.50913894       0.50976311       0.62665954 </v>
    <v>       0.00223649       0.00924076       0.37349033 </v>
    <v>       0.99790859       0.00340533       0.87277352 </v>
    <v>       0.00708535       0.49896924       0.37463093 </v>
    <v>       0.99113284       0.51284175       0.87919835 </v>
    <v>       0.50764133       0.99357828       0.37442537 </v>
    <v>       0.48988709       0.49844346       0.37653155 </v>
    <v>       0.52972913       0.50457196       0.88442707 </v>
    <v>       0.23636582       0.24693377       0.37159781 </v>
    <v>       0.23851094       0.25870450       0.87341769 </v>
    <v>       0.25507472       0.74098178       0.37512894 </v>
    <v>       0.24809112       0.73835395       0.87614982 </v>
    <v>       0.75240792       0.24208010       0.37671599 </v>
    <v>       0.74512697       0.26171595       0.87880806 </v>
    <v>       0.74969156       0.76068157       0.37573404 </v>
    <v>       0.74157986       0.71469201       0.87944721 </v>
    <v>       0.24400915       0.23207263       0.12804564 </v>
    <v>       0.25909100       0.24230083       0.62537132 </v>
    <v>       0.24725334       0.75792373       0.12342608 </v>
    <v>       0.25576697       0.75542496       0.62807143 </v>
    <v>       0.74391441       0.25765664       0.12219086 </v>
    <v>       0.74188267       0.24487225       0.62757784 </v>
    <v>       0.73260491       0.70815839       0.09150479 </v>
    <v>       0.72455204       0.74430581       0.63800366 </v>
   </varray>
  </structure>
  <varray name="forces" >
   <v>      -0.00577455      -0.00564807      -0.00477298 </v>
   <v>      -0.00518993       0.00375526       0.00145624 </v>
   <v>       0.00525329       0.01425349      -0.00517354 </v>
   <v>      -0.00305765      -0.00449352      -0.00077448 </v>
   <v>       0.00042866      -0.00467407      -0.00690693 </v>
   <v>       0.00545260       0.00806910       0.00339785 </v>
   <v>      -0.00957363       0.00457788      -0.00053113 </v>
   <v>       0.00964859       0.00439549       0.00114533 </v>
   <v>       0.00515213       0.00952298      -0.00225246 </v>
   <v>      -0.00086059       0.00291813       0.00786416 </v>
   <v>      -0.00153880       0.00705776       0.00183033 </v>
   <v>      -0.00407899       0.00334884       0.00443204 </v>
   <v>      -0.00567969      -0.00607879       0.00773662 </v>
   <v>      -0.00571323       0.00640591       0.00448696 </v>
   <v>       0.00194012       0.00986609      -0.01187840 </v>
   <v>       0.00055671       0.00988315       0.00951093 </v>
   <v>       0.00788075      -0.00041015      -0.01216630 </v>
   <v>       0.00032094      -0.00657159      -0.00366706 </v>
   <v>       0.01041657      -0.00550033      -0.00459974 </v>
   <v>      -0.00158647       0.00224062      -0.00523238 </v>
   <v>      -0.00422908      -0.01146471       0.00389127 </v>
   <v>      -0.01119544       0.00065357       0.00739093 </v>
   <v>       0.00035107       0.00799497      -0.00097849 </v>
   <v>       0.00658075      -0.00594907      -0.00093922 </v>
   <v>       0.00172803       0.00461597      -0.00850717 </v>
   <v>      -0.01414879       0.00599525       0.00370742 </v>
   <v>      -0.01007143      -0.00794870       0.01022000 </v>
   <v>       0.00560951      -0.01144915      -0.00288744 </v>
   <v>       0.00171918       0.00942579      -0.00075815 </v>
   <v>       0.02079068      -0.00325238       0.00320746 </v>
   <v>       0.00764439      -0.00032237      -0.00414682 </v>
   <v>       0.00450616       0.00378494       0.00082690 </v>
   <v>       0.01013423       0.00190899      -0.00971010 </v>
   <v>       0.02129859      -0.02732289      -0.00196857 </v>
   <v>       0.02104936      -0.00670338       0.00121145 </v>
   <v>       0.00826165       0.01957824      -0.01258634 </v>
   <v>      -0.00145245      -0.00228048      -0.01569259 </v>
   <v>      -0.00713261       0.00007488      -0.02049794 </v>
   <v>      -0.01209638      -0.00227212       0.00039643 </v>
   <v>      -0.00982978      -0.00192060      -0.02044929 </v>
   <v>       0.01131283      -0.02438247       0.00835935 </v>
   <v>      -0.00960654       0.00492558       0.01527743 </v>
   <v>      -0.02096458      -0.03152805       0.03212110 </v>
   <v>      -0.00646050       0.00556869       0.00244338 </v>
   <v>      -0.00165778      -0.00049995       0.01731153 </v>
   <v>       0.00059463      -0.00070900      -0.00827861 </v>
   <v>       0.01171458      -0.01627808       0.00219422 </v>
   <v>       0.02330466       0.02929265       0.01708465 </v>
   <v>      -0.02095245      -0.01698800       0.03899726 </v>
   <v>       0.00121779       0.00771409      -0.00145086 </v>
   <v>      -0.00431156       0.00348371       0.00635757 </v>
   <v>       0.01176599      -0.00219152      -0.00211881 </v>
   <v>      -0.00978060      -0.00359329       0.00546576 </v>
   <v>       0.00785050      -0.00107710       0.00116326 </v>
   <v>       0.00819573       0.00001002       0.00410485 </v>
   <v>      -0.01112155      -0.00344132       0.00444898 </v>
   <v>       0.00816759       0.00517732      -0.01374686 </v>
   <v>       0.00475883      -0.00351449      -0.01038258 </v>
   <v>       0.00050801      -0.00467097       0.00104991 </v>
   <v>      -0.00126885       0.00287393       0.00045503 </v>
   <v>      -0.00141766      -0.00859946      -0.00611122 </v>
   <v>      -0.00311213       0.00399204       0.00453640 </v>
   <v>       0.00045248       0.00850223       0.00422139 </v>
   <v>      -0.00393260      -0.00483401      -0.00172658 </v>
   <v>       0.01725105       0.01836171       0.00520975 </v>
   <v>      -0.00737442      -0.00270076      -0.00121737 </v>
   <v>       0.00354047       0.00312846      -0.00493187 </v>
   <v>       0.01048419       0.00222118       0.00322918 </v>
   <v>      -0.00402433      -0.00438529      -0.00823789 </v>
   <v>      -0.00182790       0.00164631      -0.00408724 </v>
   <v>       0.02284955       0.02207274      -0.00065114 </v>
   <v>       0.00377542       0.00164646      -0.00108652 </v>
   <v>      -0.00481985       0.01379805      -0.00049700 </v>
   <v>      -0.01085490       0.00223182       0.00742292 </v>
   <v>      -0.00351744      -0.00020814       0.01007296 </v>
   <v>       0.00172287       0.00279712      -0.00584945 </v>
   <v>       0.00928701      -0.00758572      -0.00034077 </v>
   <v>      -0.00140173      -0.00832454      -0.00723577 </v>
[...]
       <r>   -16.6311     0.0000    32.0000 </r>
       <r>   -16.4782     0.0000    32.0000 </r>
       <r>   -16.3253     0.0000    32.0000 </r>
       <r>   -16.1725     0.0000    32.0000 </r>
       <r>   -16.0196     0.0000    32.0000 </r>
       <r>   -15.8667     0.0000    32.0000 </r>
       <r>   -15.7138     0.0000    32.0000 </r>
       <r>   -15.5609     0.0000    32.0000 </r>
       <r>   -15.4081     0.0000    32.0000 </r>
       <r>   -15.2552     0.0563    32.0086 </r>
       <r>   -15.1023    11.2269    33.7250 </r>
       <r>   -14.9494    43.6540    40.3987 </r>
       <r>   -14.7966    43.4253    47.0375 </r>
       <r>   -14.6437    38.2957    52.8920 </r>
       <r>   -14.4908    38.5087    58.7792 </r>
       <r>   -14.3379    37.9217    64.5766 </r>
       <r>   -14.1850    59.3336    73.6474 </r>
       <r>   -14.0322    93.2106    87.8972 </r>
       <r>   -13.8793   104.3021   103.8427 </r>
       <r>   -13.7264    63.5656   113.5605 </r>
       <r>   -13.5735    31.7322   118.4117 </r>
       <r>   -13.4207    22.2915   121.8196 </r>
       <r>   -13.2678     1.1803   122.0000 </r>
       <r>   -13.1149     0.0000   122.0000 </r>
       <r>   -12.9620     0.0000   122.0000 </r>
       <r>   -12.8091     1.5233   122.2329 </r>
       <r>   -12.6563    61.0705   131.5692 </r>
       <r>   -12.5034   134.0650   152.0648 </r>
       <r>   -12.3505   127.6405   171.5782 </r>
       <r>   -12.1976   113.3361   188.9048 </r>
       <r>   -12.0447    89.6289   202.6071 </r>
       <r>   -11.8919    57.9279   211.4630 </r>
       <r>   -11.7390    21.9426   214.8176 </r>
       <r>   -11.5861     4.9563   215.5753 </r>
       <r>   -11.4332    13.2684   217.6037 </r>
       <r>   -11.2804     2.5920   218.0000 </r>
       <r>   -11.1275     0.0000   218.0000 </r>
       <r>   -10.9746     0.0000   218.0000 </r>
       <r>   -10.8217     0.0000   218.0000 </r>
       <r>   -10.6688     0.0000   218.0000 </r>
       <r>   -10.5160     0.0000   218.0000 </r>
       <r>   -10.3631     0.0000   218.0000 </r>
       <r>   -10.2102     0.0000   218.0000 </r>
       <r>   -10.0573     0.0000   218.0000 </r>
       <r>    -9.9045     0.0000   218.0000 </r>
       <r>    -9.7516     0.0000   218.0000 </r>
       <r>    -9.5987     0.0000   218.0000 </r>
       <r>    -9.4458     0.0000   218.0000 </r>
       <r>    -9.2929     0.0000   218.0000 </r>
       <r>    -9.1401     0.0000   218.0000 </r>
       <r>    -8.9872     0.0000   218.0000 </r>
       <r>    -8.8343     0.0000   218.0000 </r>
       <r>    -8.6814     0.0000   218.0000 </r>
       <r>    -8.5286     0.0000   218.0000 </r>
       <r>    -8.3757     0.0000   218.0000 </r>
       <r>    -8.2228     0.0000   218.0000 </r>
       <r>    -8.0699     0.0000   218.0000 </r>
       <r>    -7.9170     0.0000   218.0000 </r>
       <r>    -7.7642     0.0000   218.0000 </r>
       <r>    -7.6113     0.0000   218.0000 </r>
       <r>    -7.4584     0.0000   218.0000 </r>
       <r>    -7.3055     0.0000   218.0000 </r>
       <r>    -7.1527     0.0000   218.0000 </r>
       <r>    -6.9998     0.0000   218.0000 </r>
       <r>    -6.8469     0.0000   218.0000 </r>
       <r>    -6.6940     0.0000   218.0000 </r>
       <r>    -6.5411     0.0000   218.0000 </r>
       <r>    -6.3883     0.0000   218.0000 </r>
       <r>    -6.2354     0.0000   218.0000 </r>
       <r>    -6.0825     0.0000   218.0000 </r>
       <r>    -5.9296     0.0000   218.0000 </r>
       <r>    -5.7768     0.0000   218.0000 </r>
       <r>    -5.6239     0.0000   218.0000 </r>
       <r>    -5.4710     0.0000   218.0000 </r>
       <r>    -5.3181     0.0000   218.0000 </r>
       <r>    -5.1652     0.0000   218.0000 </r>
       <r>    -5.0124     0.0000   218.0000 </r>
       <r>    -4.8595     0.0000   218.0000 </r>
       <r>    -4.7066     0.0000   218.0000 </r>
       <r>    -4.5537     0.0000   218.0000 </r>
       <r>    -4.4008     0.0000   218.0000 </r>
       <r>    -4.2480     0.0000   218.0000 </r>
       <r>    -4.0951     0.0000   218.0000 </r>
       <r>    -3.9422     0.0000   218.0000 </r>
       <r>    -3.7893     0.0000   218.0000 </r>
       <r>    -3.6365     0.0000   218.0000 </r>
       <r>    -3.4836     0.0000   218.0000 </r>
       <r>    -3.3307     0.0000   218.0000 </r>
       <r>    -3.1778     0.0000   218.0000 </r>
       <r>    -3.0249     0.0000   218.0000 </r>
       <r>    -2.8721     0.0000   218.0000 </r>
       <r>    -2.7192     0.0000   218.0000 </r>
       <r>    -2.5663     0.0045   218.0007 </r>
       <r>    -2.4134     6.0634   218.9276 </r>
       <r>    -2.2606    13.8499   221.0450 </r>
       <r>    -2.1077    19.0044   223.9503 </r>
       <r>    -1.9548    25.1026   227.7880 </r>
       <r>    -1.8019    34.2076   233.0176 </r>
       <r>    -1.6490    41.7763   239.4042 </r>
       <r>    -1.4962    50.0265   247.0522 </r>
       <r>    -1.3433    54.7319   255.4195 </r>
       <r>    -1.1904    73.2069   266.6112 </r>
       <r>    -1.0375    71.3033   277.5119 </r>
       <r>    -0.8847    74.5510   288.9091 </r>
       <r>    -0.7318    89.8488   302.6451 </r>
       <r>    -0.5789    94.3676   317.0718 </r>
       <r>    -0.4260    98.5391   332.1362 </r>
       <r>    -0.2731    71.1908   343.0198 </r>
       <r>    -0.1203    61.3188   352.3941 </r>
       <r>     0.0326    55.5614   360.8882 </r>
       <r>     0.1855    49.8317   368.5063 </r>
       <r>     0.3384    47.1722   375.7179 </r>
       <r>     0.4912    54.2406   384.0101 </r>
       <r>     0.6441    55.8221   392.5441 </r>
       <r>     0.7970    52.3930   400.5538 </r>
       <r>     0.9499    55.5757   409.0501 </r>
       <r>     1.1028    64.1784   418.8616 </r>
       <r>     1.2556    69.5136   429.4887 </r>
       <r>     1.4085    79.5972   441.6574 </r>
       <r>     1.5614    81.1326   454.0608 </r>
       <r>     1.7143    67.4037   464.3653 </r>
       <r>     1.8672    56.6173   473.0209 </r>
       <r>     2.0200    46.0673   480.0635 </r>
       <r>     2.1729    27.9083   484.3301 </r>
       <r>     2.3258    23.8985   487.9836 </r>
       <r>     2.4787     0.1070   488.0000 </r>
       <r>     2.6315     0.0000   488.0000 </r>
       <r>     2.7844     0.0000   488.0000 </r>
       <r>     2.9373     0.0000   488.0000 </r>
       <r>     3.0902     0.0000   488.0000 </r>
       <r>     3.2431     0.0000   488.0000 </r>
       <r>     3.3959     0.0000   488.0000 </r>
       <r>     3.5488     0.0000   488.0000 </r>
       <r>     3.7017     0.0000   488.0000 </r>
       <r>     3.8546     0.0000   488.0000 </r>
       <r>     4.0074     0.0000   488.0000 </r>
       <r>     4.1603     0.0000   488.0000 </r>
       <r>     4.3132     0.5410   488.0827 </r>
       <r>     4.4661     6.7954   489.1216 </r>
       <r>     4.6190    30.6492   493.8072 </r>
       <r>     4.7718    52.2471   501.7946 </r>
       <r>     4.9247    36.9957   507.4504 </r>
       <r>     5.0776    50.6876   515.1994 </r>
       <r>     5.2305    58.5640   524.1526 </r>
       <r>     5.3833    66.7327   534.3546 </r>
       <r>     5.5362    72.5556   545.4467 </r>
       <r>     5.6891    73.6921   556.7126 </r>
       <r>     5.8420    86.5385   569.9424 </r>
       <r>     5.9949    75.0300   581.4129 </r>
       <r>     6.1477    84.2537   594.2934 </r>
       <r>     6.3006    63.9325   604.0673 </r>
       <r>     6.4535    41.9908   610.4868 </r>
       <r>     6.6064    22.5017   613.9268 </r>
       <r>     6.7592    17.3252   616.5755 </r>
       <r>     6.9121    17.7101   619.2829 </r>
       <r>     7.0650    15.9961   621.7284 </r>
       <r>     7.2179    13.5555   623.8007 </r>
       <r>     7.3708    19.6399   626.8032 </r>
       <r>     7.5236    14.8088   629.0672 </r>
       <r>     7.6765    13.2144   631.0873 </r>
       <r>     7.8294    14.0088   633.2290 </r>
       <r>     7.9823    20.0271   636.2907 </r>
       <r>     8.1352    27.1503   640.4414 </r>
       <r>     8.2880    26.6697   644.5186 </r>
       <r>     8.4409    25.6257   648.4362 </r>
       <r>     8.5938    23.5881   652.0423 </r>
       <r>     8.7467    26.9862   656.1679 </r>
       <r>     8.8995    38.4607   662.0477 </r>
       <r>     9.0524    35.8255   667.5246 </r>
       <r>     9.2053    38.5026   673.4108 </r>
       <r>     9.3582    42.5152   679.9105 </r>
       <r>     9.5111    46.6244   687.0383 </r>
       <r>     9.6639    49.1432   694.5512 </r>
       <r>     9.8168    55.0514   702.9674 </r>
       <r>     9.9697    60.5112   712.2182 </r>
       <r>    10.1226    66.3283   722.3584 </r>
       <r>    10.2754    53.0023   730.4612 </r>
       <r>    10.4283    56.3506   739.0760 </r>
       <r>    10.5812    58.1438   747.9649 </r>
       <r>    10.7341    53.7345   756.1797 </r>
       <r>    10.8870    55.3877   764.6473 </r>
       <r>    11.0398    21.9139   767.9975 </r>
       <r>    11.1927     0.0166   768.0000 </r>
       <r>    11.3456     0.0000   768.0000 </r>
       <r>    11.4985     0.0000   768.0000 </r>
       <r>    11.6513     0.0000   768.0000 </r>
       <r>    11.8042     0.0000   768.0000 </r>
       <r>    11.9571     0.0000   768.0000 </r>
       <r>    12.1100     0.0000   768.0000 </r>
       <r>    12.2629     0.0000   768.0000 </r>
       <r>    12.4157     0.0000   768.0000 </r>
       <r>    12.5686     0.0000   768.0000 </r>
       <r>    12.7215     0.0000   768.0000 </r>
       <r>    12.8744     0.0000   768.0000 </r>
       <r>    13.0272     0.0000   768.0000 </r>
      </set>
     </set>
    </array>
   </total>
  </dos>
 </calculation>
 <structure name="finalpos" >
  <crystal>
   <varray name="basis" >
    <v>      11.23921036       0.01884526       0.00612809 </v>
    <v>       0.01884910      11.23907193      -0.00708937 </v>
    <v>       0.00872914      -0.01013085      15.93605828 </v>
   </varray>
   <i name="volume">   2013.00861919 </i>
   <varray name="rec_basis" >
    <v>       0.08897450      -0.00014925      -0.00004883 </v>
    <v>      -0.00014922       0.08897560       0.00005665 </v>
    <v>      -0.00003428       0.00003964       0.06275082 </v>
   </varray>
  </crystal>
  <varray name="positions" >
   <v>       0.00317263       0.24432295       0.12933956 </v>
   <v>       0.00305105       0.25230209       0.62460915 </v>
   <v>       0.00458035       0.75270253       0.12927465 </v>
   <v>       0.00402533       0.74749744       0.61873445 </v>
   <v>       0.50596316       0.25250762       0.12956410 </v>
   <v>       0.49590450       0.25482472       0.62001698 </v>
   <v>       0.50573775       0.74146644       0.13648912 </v>
   <v>       0.49554315       0.74879225       0.61759755 </v>
   <v>       0.99511777       0.25738372       0.38219173 </v>
   <v>       0.01154858       0.24312224       0.86982652 </v>
   <v>       0.99348814       0.74494903       0.37626741 </v>
   <v>       0.01486261       0.75667939       0.87201413 </v>
   <v>       0.50626923       0.25017219       0.37497295 </v>
   <v>       0.49067660       0.25905337       0.86863701 </v>
   <v>       0.50635426       0.74695986       0.37543885 </v>
   <v>       0.48886168       0.74612517       0.87695541 </v>
   <v>       0.24687034       0.99643147       0.12514445 </v>
   <v>       0.24565309       0.00213284       0.62395412 </v>
   <v>       0.24415903       0.50152751       0.12789679 </v>
   <v>       0.24718923       0.49515872       0.62342812 </v>
   <v>       0.75817894       0.00376932       0.13388559 </v>
   <v>       0.75519715       0.00249980       0.61844155 </v>
   <v>       0.75236228       0.49869838       0.14038139 </v>
   <v>       0.75334263       0.50385426       0.61648440 </v>
   <v>       0.25245148       0.99575812       0.37835434 </v>
   <v>       0.24135513       0.00625098       0.87496661 </v>
   <v>       0.24936373       0.50203229       0.37797646 </v>
   <v>       0.24258702       0.49334827       0.86968212 </v>
   <v>       0.74859407       0.99542667       0.37304257 </v>
   <v>       0.76202395       0.01495878       0.87513880 </v>
   <v>       0.75103099       0.50583764       0.37621906 </v>
   <v>       0.75800426       0.49105639       0.86566064 </v>
   <v>       0.99910755       0.99906999       0.49776779 </v>
   <v>       0.00436626       0.48765019       0.00128566 </v>
   <v>       0.49507302       0.00757264       0.00889227 </v>
   <v>       0.50217953       0.99820973       0.49439072 </v>
   <v>       0.50122821       0.50169236       0.49956601 </v>
   <v>       0.24876620       0.24925128       0.50116701 </v>
   <v>       0.24893397       0.75233198       0.00052614 </v>
   <v>       0.24975897       0.74810757       0.49916400 </v>
   <v>       0.76333717       0.24809850       0.00080446 </v>
   <v>       0.75046276       0.25008753       0.50025810 </v>
   <v>       0.26475113       0.25678452       0.24863517 </v>
   <v>       0.25456685       0.75043391       0.25020738 </v>
   <v>       0.25405082       0.75000381       0.75050004 </v>
   <v>       0.74976486       0.24921403       0.25282245 </v>
   <v>       0.74864099       0.25299193       0.74928771 </v>
   <v>       0.75968672       0.75818958       0.75438126 </v>
   <v>       0.00475160       0.00445217       0.74947033 </v>
   <v>       0.99838795       0.50142799       0.25286882 </v>
   <v>       0.99966218       0.49964807       0.74657191 </v>
   <v>       0.50032913       0.00040877       0.74299097 </v>
   <v>       0.00915105       0.00072525       0.00245745 </v>
   <v>       0.99937002       0.50164724       0.50095412 </v>
   <v>       0.47362858       0.50061282       0.99874284 </v>
   <v>       0.24900139       0.24220334       0.99739502 </v>
   <v>       0.74281437       0.78261419       0.99026046 </v>
   <v>       0.74887078       0.75038829       0.49940374 </v>
   <v>       0.24996196       0.24894830       0.75078162 </v>
   <v>       0.74675983       0.74918294       0.25586090 </v>
   <v>       0.99113889       0.98535781       0.25009157 </v>
   <v>       0.50090563       0.99540774       0.25126736 </v>
   <v>       0.50526005       0.50158149       0.25443278 </v>
   <v>       0.49263323       0.48929912       0.74769068 </v>
   <v>       0.11728417       0.13148574       0.74589033 </v>
   <v>       0.12034393       0.62913653       0.24678518 </v>
   <v>       0.11848607       0.63323179       0.74865861 </v>
   <v>       0.61770816       0.13334566       0.24753845 </v>
   <v>       0.61734201       0.12649567       0.76638248 </v>
   <v>       0.61801199       0.63109096       0.25159306 </v>
   <v>       0.38898072       0.36342492       0.24398386 </v>
   <v>       0.38127059       0.36857815       0.75165697 </v>
   <v>       0.38809931       0.85828456       0.25140742 </v>
   <v>       0.38381158       0.87309251       0.76318001 </v>
   <v>       0.88181969       0.36878998       0.25111191 </v>
   <v>       0.88469833       0.36265484       0.75269850 </v>
   <v>       0.88048591       0.86157256       0.23655917 </v>
   <v>       0.88378835       0.86368985       0.75512965 </v>
   <v>       0.35224755       0.10790905       0.25465982 </v>
   <v>       0.37578345       0.11366402       0.76626088 </v>
   <v>       0.36754105       0.61069614       0.23716397 </v>
   <v>       0.38614330       0.62675456       0.75493035 </v>
   <v>       0.87530611       0.12326304       0.24694799 </v>
   <v>       0.86481913       0.11612554       0.74972786 </v>
   <v>       0.86977165       0.61770587       0.25403342 </v>
   <v>       0.85394962       0.61147200       0.74690545 </v>
   <v>       0.12681725       0.36995406       0.24240227 </v>
   <v>       0.12896254       0.38633920       0.74920588 </v>
   <v>       0.13898521       0.88723573       0.25434438 </v>
   <v>       0.13414741       0.88094138       0.75433289 </v>
   <v>       0.63421839       0.37979270       0.25769288 </v>
   <v>       0.63750956       0.38974609       0.74791395 </v>
   <v>       0.63627429       0.88250739       0.23511413 </v>
   <v>       0.62578627       0.87575650       0.77142735 </v>
   <v>       0.35353842       0.38580394       0.00024222 </v>
   <v>       0.36267890       0.38601260       0.50269497 </v>
   <v>       0.36622146       0.89173593       0.98754807 </v>
   <v>       0.36253294       0.88851973       0.50155920 </v>
   <v>       0.83898399       0.41149718       0.00133399 </v>
   <v>       0.86119158       0.38341451       0.49923601 </v>
   <v>       0.86963357       0.88802702       0.00278089 </v>
   <v>       0.86372226       0.88928882       0.50291495 </v>
   <v>       0.14055181       0.10929522       0.99597168 </v>
   <v>       0.13834185       0.11030908       0.50335304 </v>
   <v>       0.12871522       0.61317927       0.00219934 </v>
   <v>       0.13995617       0.61456345       0.50535767 </v>
   <v>       0.62760570       0.13507536       0.99690881 </v>
   <v>       0.63842096       0.11076961       0.50035455 </v>
   <v>       0.63501486       0.61171450       0.49537757 </v>
   <v>       0.09830424       0.35525293       0.00317829 </v>
   <v>       0.11485017       0.36117677       0.50502660 </v>
   <v>       0.11524312       0.86029935       0.99752007 </v>
   <v>       0.11358263       0.86138393       0.49692293 </v>
   <v>       0.61153889       0.36057121       0.49963416 </v>
   <v>       0.61083594       0.88863052       0.97361014 </v>
   <v>       0.61056898       0.86396101       0.50497401 </v>
   <v>       0.39064669       0.13415823       0.97987646 </v>
   <v>       0.38977094       0.13713836       0.49480964 </v>
   <v>       0.39295919       0.64713787       0.00692036 </v>
   <v>       0.38703392       0.63781883       0.50228101 </v>
   <v>       0.89066992       0.14580343       0.99965904 </v>
   <v>       0.88850838       0.13750252       0.50634820 </v>
   <v>       0.88528277       0.63836474       0.50338169 </v>
   <v>       0.01728542       0.01521207       0.13026992 </v>
   <v>       0.00085036       0.99181175       0.62616783 </v>
   <v>       0.98889684       0.51157799       0.12149055 </v>
   <v>       0.99610899       0.49944973       0.62696585 </v>
   <v>       0.49078617       0.00584689       0.12322190 </v>
   <v>       0.50096939       0.00343650       0.62776822 </v>
   <v>       0.53825163       0.47969741       0.10489356 </v>
   <v>       0.50912333       0.50962602       0.62670580 </v>
   <v>       0.00211399       0.00929771       0.37347716 </v>
   <v>       0.99775470       0.00349978       0.87273777 </v>
   <v>       0.00708356       0.49901990       0.37467297 </v>
   <v>       0.99122217       0.51281822       0.87918452 </v>
   <v>       0.50758058       0.99364555       0.37449095 </v>
   <v>       0.48974504       0.49856328       0.37658585 </v>
   <v>       0.52963374       0.50450346       0.88439290 </v>
   <v>       0.23629497       0.24693060       0.37157959 </v>
   <v>       0.23858408       0.25849453       0.87343210 </v>
   <v>       0.25503482       0.74099013       0.37510731 </v>
   <v>       0.24811855       0.73817868       0.87621573 </v>
   <v>       0.75247205       0.24207062       0.37672421 </v>
   <v>       0.74528043       0.26151868       0.87879951 </v>
   <v>       0.74973130       0.76082587       0.37579318 </v>
   <v>       0.74136259       0.71495575       0.87932368 </v>
   <v>       0.24400694       0.23195431       0.12802280 </v>
   <v>       0.25891343       0.24225257       0.62541543 </v>
   <v>       0.24708433       0.75796875       0.12339766 </v>
   <v>       0.25574835       0.75556817       0.62808178 </v>
   <v>       0.74392453       0.25779754       0.12217886 </v>
   <v>       0.74186339       0.24487509       0.62752181 </v>
   <v>       0.73235040       0.70807676       0.09146697 </v>
   <v>       0.72470307       0.74419527       0.63781570 </v>
  </varray>
 </structure>
</modeling>
