       N       E                     dE             d eps       ncg     rms          rms(c)
DAV:   1    -0.112002702521E+04   -0.11200E+04   -0.19769E-02 14504   0.326E-01    0.290E-02
RMM:   2    -0.112002703039E+04   -0.51801E-05   -0.68609E-05  7249   0.123E-02    0.551E-02
RMM:   3    -0.112002702871E+04    0.16880E-05   -0.22644E-05  6791   0.854E-03    0.875E-03
RMM:   4    -0.112002703061E+04   -0.19034E-05   -0.12472E-05  5683   0.381E-03    0.739E-03
RMM:   5    -0.112002703216E+04   -0.15497E-05   -0.63817E-06  5379   0.398E-03    0.680E-03
RMM:   6    -0.112002703437E+04   -0.22125E-05   -0.46807E-06  4375   0.312E-03    0.524E-03
RMM:   7    -0.112002703647E+04   -0.20966E-05   -0.35723E-06  4366   0.302E-03    0.401E-03
RMM:   8    -0.112002703808E+04   -0.16144E-05   -0.26588E-06  3967   0.271E-03
   1 F= -.11200270E+04 E0= -.11200270E+04  d E =-.112003E+04  mag=    38.0000
       N       E                     dE             d eps       ncg     rms          rms(c)
DAV:   1    -0.112002486719E+04    0.21693E-02   -0.23008E+00 12416   0.173E+00    0.856E-01
RMM:   2    -0.112003243245E+04   -0.75653E-02   -0.71769E-02 12293   0.363E-01    0.621E-01
RMM:   3    -0.112003272437E+04   -0.29192E-03   -0.41365E-03 12806   0.115E-01    0.350E-01
RMM:   4    -0.112003223331E+04    0.49106E-03   -0.17098E-03 12158   0.488E-02    0.187E-01
RMM:   5    -0.112003213545E+04    0.97858E-04   -0.43363E-04 10370   0.295E-02    0.120E-01
RMM:   6    -0.112003212991E+04    0.55417E-05   -0.79753E-05  7429   0.126E-02    0.559E-02
RMM:   7    -0.112003212812E+04    0.17885E-05   -0.32587E-05  7234   0.936E-03    0.317E-02
RMM:   8    -0.112003212657E+04    0.15486E-05   -0.20841E-05  7172   0.656E-03
   2 F= -.11200321E+04 E0= -.11200321E+04  d E =-.508849E-02  mag=    38.0000
       N       E                     dE             d eps       ncg     rms          rms(c)
DAV:   1    -0.112003217167E+04   -0.43554E-04   -0.95796E-02 13472   0.352E-01    0.175E-01
RMM:   2    -0.112003247640E+04   -0.30473E-03   -0.29667E-03 12271   0.741E-02    0.128E-01
RMM:   3    -0.112003248115E+04   -0.47503E-05   -0.12823E-04  7921   0.227E-02    0.742E-02
RMM:   4    -0.112003246145E+04    0.19700E-04   -0.72915E-05  6925   0.118E-02    0.400E-02
RMM:   5    -0.112003246034E+04    0.11114E-05   -0.28606E-05  6828   0.839E-03    0.419E-02
RMM:   6    -0.112003246156E+04   -0.12178E-05   -0.99556E-06  5994   0.513E-03    0.120E-02
RMM:   7    -0.112003246291E+04   -0.13474E-05   -0.33883E-06  4447   0.295E-03    0.815E-03
RMM:   8    -0.112003246432E+04   -0.14123E-05   -0.20564E-06  3847   0.262E-03
   3 F= -.11200325E+04 E0= -.11200325E+04  d E =-.542624E-02  mag=    38.0000
       N       E                     dE             d eps       ncg     rms          rms(c)
DAV:   1    -0.112003012199E+04    0.23409E-02   -0.22030E+00 12456   0.175E+00    0.537E-01
RMM:   2    -0.112003667636E+04   -0.65544E-02   -0.60321E-02 12328   0.334E-01    0.373E-01
RMM:   3    -0.112003700329E+04   -0.32693E-03   -0.34110E-03 12838   0.106E-01    0.236E-01
RMM:   4    -0.112003682495E+04    0.17834E-03   -0.73288E-04 11872   0.332E-02    0.131E-01
RMM:   5    -0.112003677999E+04    0.44963E-04   -0.28251E-04  8660   0.210E-02    0.687E-02
RMM:   6    -0.112003678655E+04   -0.65612E-05   -0.52079E-05  7229   0.128E-02    0.236E-02
RMM:   7    -0.112003678873E+04   -0.21843E-05   -0.28109E-05  7120   0.733E-03    0.178E-02
RMM:   8    -0.112003678958E+04   -0.84253E-06   -0.15059E-05  6925   0.673E-03
   4 F= -.11200368E+04 E0= -.11200368E+04  d E =-.432526E-02  mag=    38.0000
       N       E                     dE             d eps       ncg     rms          rms(c)
DAV:   1    -0.112003658887E+04    0.19987E-03   -0.11903E-01 12792   0.407E-01    0.125E-01
RMM:   2    -0.112003695339E+04   -0.36452E-03   -0.33598E-03 12326   0.786E-02    0.872E-02
RMM:   3    -0.112003696672E+04   -0.13329E-04   -0.15292E-04  7673   0.250E-02    0.588E-02
RMM:   4    -0.112003696126E+04    0.54565E-05   -0.47510E-05  7089   0.105E-02    0.343E-02
RMM:   5    -0.112003695960E+04    0.16633E-05   -0.26500E-05  6988   0.734E-03    0.243E-02
RMM:   6    -0.112003696079E+04   -0.11944E-05   -0.10206E-05  6486   0.495E-03    0.775E-03
RMM:   7    -0.112003696124E+04   -0.45038E-06   -0.50670E-06  5499   0.371E-03    0.701E-03
RMM:   8    -0.112003696149E+04   -0.24952E-06   -0.26756E-06  4301   0.289E-03
   5 F= -.11200370E+04 E0= -.11200370E+04  d E =-.449717E-02  mag=    38.0000
       N       E                     dE             d eps       ncg     rms          rms(c)
DAV:   1    -0.112003484238E+04    0.21189E-02   -0.20908E+00 12816   0.170E+00    0.472E-01
RMM:   2    -0.112004013924E+04   -0.52969E-02   -0.55206E-02 12394   0.314E-01    0.340E-01
RMM:   3    -0.112004024462E+04   -0.10539E-03   -0.31171E-03 12543   0.103E-01    0.222E-01
RMM:   4    -0.112004009995E+04    0.14468E-03   -0.76561E-04 12527   0.328E-02    0.129E-01
RMM:   5    -0.112004006166E+04    0.38283E-04   -0.27956E-04  8407   0.210E-02    0.735E-02
RMM:   6    -0.112004007136E+04   -0.97017E-05   -0.65336E-05  7220   0.140E-02    0.374E-02
RMM:   7    -0.112004007786E+04   -0.64971E-05   -0.38389E-05  7124   0.855E-03    0.211E-02
RMM:   8    -0.112004008344E+04   -0.55803E-05   -0.21866E-05  7051   0.826E-03
   6 F= -.11200401E+04 E0= -.11200401E+04  d E =-.312195E-02  mag=    38.0000
       N       E                     dE             d eps       ncg     rms          rms(c)
DAV:   1    -0.112003953528E+04    0.54258E-03   -0.32362E-01 12672   0.671E-01    0.185E-01
RMM:   2    -0.112004037795E+04   -0.84267E-03   -0.87004E-03 12487   0.124E-01    0.134E-01
RMM:   3    -0.112004038921E+04   -0.11260E-04   -0.45027E-04  9965   0.404E-02    0.900E-02
RMM:   4    -0.112004037069E+04    0.18518E-04   -0.10395E-04  7196   0.142E-02    0.572E-02
RMM:   5    -0.112004036818E+04    0.25147E-05   -0.52047E-05  7111   0.110E-02    0.475E-02
RMM:   6    -0.112004037156E+04   -0.33819E-05   -0.24018E-05  7023   0.778E-03    0.146E-02
RMM:   7    -0.112004037359E+04   -0.20287E-05   -0.12118E-05  6849   0.570E-03    0.152E-02
RMM:   8    -0.112004037518E+04   -0.15903E-05   -0.73360E-06  6018   0.427E-03
   7 F= -.11200404E+04 E0= -.11200404E+04  d E =-.341369E-02  mag=    38.0000
       N       E                     dE             d eps       ncg     rms          rms(c)
DAV:   1    -0.112003886764E+04    0.15059E-02   -0.19076E+00 12512   0.161E+00    0.357E-01
RMM:   2    -0.112004340866E+04   -0.45410E-02   -0.47725E-02 12475   0.284E-01    0.227E-01
RMM:   3    -0.112004345440E+04   -0.45739E-04   -0.24934E-03 12304   0.951E-02    0.143E-01
RMM:   4    -0.112004335582E+04    0.98585E-04   -0.64539E-04 11502   0.291E-02    0.745E-02
RMM:   5    -0.112004334137E+04    0.14445E-04   -0.14396E-04  7315   0.176E-02    0.426E-02
RMM:   6    -0.112004334671E+04   -0.53377E-05   -0.48853E-05  7138   0.109E-02    0.226E-02
RMM:   7    -0.112004334947E+04   -0.27635E-05   -0.28656E-05  6989   0.762E-03    0.167E-02
RMM:   8    -0.112004335064E+04   -0.11632E-05   -0.18123E-05  6826   0.661E-03
   8 F= -.11200434E+04 E0= -.11200434E+04  d E =-.297546E-02  mag=    38.0000
       N       E                     dE             d eps       ncg     rms          rms(c)
DAV:   1    -0.112003557962E+04    0.77699E-02   -0.40194E+00 12480   0.234E+00    0.517E-01
RMM:   2    -0.112004518251E+04   -0.96029E-02   -0.10089E-01 12544   0.413E-01    0.330E-01
RMM:   3    -0.112004526741E+04   -0.84897E-04   -0.52449E-03 12735   0.136E-01    0.207E-01
RMM:   4    -0.112004506120E+04    0.20620E-03   -0.13901E-03 14092   0.420E-02    0.108E-01
RMM:   5    -0.112004503581E+04    0.25393E-04   -0.34593E-04 10001   0.205E-02    0.493E-02
RMM:   6    -0.112004504113E+04   -0.53149E-05   -0.74544E-05  7271   0.126E-02    0.301E-02
RMM:   7    -0.112004504520E+04   -0.40706E-05   -0.43115E-05  7166   0.841E-03    0.186E-02
RMM:   8    -0.112004504683E+04   -0.16379E-05   -0.27867E-05  7073   0.755E-03
   9 F= -.11200450E+04 E0= -.11200450E+04  d E =-.467165E-02  mag=    38.0000
       N       E                     dE             d eps       ncg     rms          rms(c)
DAV:   1    -0.112004336659E+04    0.16786E-02   -0.17475E+00 12376   0.153E+00    0.324E-01
RMM:   2    -0.112004754301E+04   -0.41764E-02   -0.43499E-02 12537   0.269E-01    0.219E-01
RMM:   3    -0.112004758293E+04   -0.39921E-04   -0.22496E-03 12312   0.879E-02    0.140E-01
RMM:   4    -0.112004749859E+04    0.84338E-04   -0.52362E-04 10937   0.263E-02    0.839E-02
RMM:   5    -0.112004747507E+04    0.23515E-04   -0.16387E-04  7469   0.172E-02    0.398E-02
RMM:   6    -0.112004748129E+04   -0.62173E-05   -0.47604E-05  7146   0.110E-02    0.268E-02
RMM:   7    -0.112004748411E+04   -0.28230E-05   -0.27886E-05  6923   0.725E-03    0.186E-02
RMM:   8    -0.112004748542E+04   -0.13035E-05   -0.18065E-05  6784   0.677E-03
  10 F= -.11200475E+04 E0= -.11200475E+04  d E =-.243858E-02  mag=    38.0000
       N       E                     dE             d eps       ncg     rms          rms(c)
DAV:   1    -0.112004172175E+04    0.57624E-02   -0.29325E+00 12352   0.198E+00    0.419E-01
RMM:   2    -0.112004870168E+04   -0.69799E-02   -0.72659E-02 12489   0.348E-01    0.282E-01
RMM:   3    -0.112004878762E+04   -0.85936E-04   -0.38093E-03 12406   0.115E-01    0.181E-01
RMM:   4    -0.112004865201E+04    0.13561E-03   -0.91085E-04 13052   0.341E-02    0.109E-01
RMM:   5    -0.112004861493E+04    0.37078E-04   -0.30742E-04  9097   0.198E-02    0.482E-02
RMM:   6    -0.112004862163E+04   -0.66955E-05   -0.63863E-05  7215   0.116E-02    0.325E-02
RMM:   7    -0.112004862503E+04   -0.34038E-05   -0.33700E-05  7054   0.799E-03    0.208E-02
RMM:   8    -0.112004862658E+04   -0.15547E-05   -0.22313E-05  6886   0.715E-03
  11 F= -.11200486E+04 E0= -.11200486E+04  d E =-.357975E-02  mag=    38.0000
       N       E                     dE             d eps       ncg     rms          rms(c)
DAV:   1    -0.112004531714E+04    0.33079E-02   -0.23785E+00 12312   0.178E+00    0.366E-01
RMM:   2    -0.112005099956E+04   -0.56824E-02   -0.58867E-02 12523   0.313E-01    0.243E-01
RMM:   3    -0.112005105672E+04   -0.57157E-04   -0.30581E-03 12444   0.102E-01    0.152E-01
RMM:   4    -0.112005094744E+04    0.10928E-03   -0.67335E-04 11869   0.297E-02    0.962E-02
RMM:   5    -0.112005090984E+04    0.37592E-04   -0.25286E-04  8334   0.191E-02    0.574E-02
RMM:   6    -0.112005091666E+04   -0.68187E-05   -0.58963E-05  7190   0.120E-02    0.263E-02
RMM:   7    -0.112005092081E+04   -0.41504E-05   -0.30956E-05  7056   0.773E-03    0.171E-02
RMM:   8    -0.112005092359E+04   -0.27765E-05   -0.18874E-05  6905   0.704E-03
  12 F= -.11200509E+04 E0= -.11200509E+04  d E =-.229701E-02  mag=    38.0000
       N       E                     dE             d eps       ncg     rms          rms(c)
DAV:   1    -0.112004622372E+04    0.46971E-02   -0.23385E+00 12312   0.176E+00    0.363E-01
RMM:   2    -0.112005181545E+04   -0.55917E-02   -0.57912E-02 12530   0.311E-01    0.241E-01
RMM:   3    -0.112005187586E+04   -0.60403E-04   -0.30251E-03 12414   0.101E-01    0.150E-01
RMM:   4    -0.112005177058E+04    0.10528E-03   -0.67076E-04 11841   0.296E-02    0.941E-02
RMM:   5    -0.112005173451E+04    0.36070E-04   -0.24697E-04  8278   0.189E-02    0.563E-02
RMM:   6    -0.112005174116E+04   -0.66549E-05   -0.58460E-05  7197   0.119E-02    0.265E-02
RMM:   7    -0.112005174526E+04   -0.40966E-05   -0.30882E-05  7086   0.776E-03    0.171E-02
RMM:   8    -0.112005174792E+04   -0.26637E-05   -0.18767E-05  6897   0.701E-03
  13 F= -.11200517E+04 E0= -.11200517E+04  d E =-.312134E-02  mag=    38.0000
       N       E                     dE             d eps       ncg     rms          rms(c)
DAV:   1    -0.112004935897E+04    0.23863E-02   -0.17819E+00 12704   0.154E+00    0.349E-01
RMM:   2    -0.112005380224E+04   -0.44433E-02   -0.44123E-02 12600   0.270E-01    0.232E-01
RMM:   3    -0.112005387708E+04   -0.74847E-04   -0.22447E-03 12385   0.875E-02    0.143E-01
RMM:   4    -0.112005378013E+04    0.96958E-04   -0.53552E-04 11034   0.268E-02    0.767E-02
RMM:   5    -0.112005376497E+04    0.15153E-04   -0.15311E-04  7386   0.170E-02    0.285E-02
RMM:   6    -0.112005377064E+04   -0.56693E-05   -0.45547E-05  7130   0.109E-02    0.271E-02
RMM:   7    -0.112005377348E+04   -0.28335E-05   -0.26609E-05  6910   0.703E-03    0.144E-02
RMM:   8    -0.112005377515E+04   -0.16720E-05   -0.16610E-05  6770   0.653E-03
  14 F= -.11200538E+04 E0= -.11200538E+04  d E =-.202722E-02  mag=    38.0000
       N       E                     dE             d eps       ncg     rms          rms(c)
DAV:   1    -0.112005155365E+04    0.22198E-02   -0.11226E+00 12744   0.122E+00    0.277E-01
RMM:   2    -0.112005436634E+04   -0.28127E-02   -0.27930E-02 12663   0.215E-01    0.184E-01
RMM:   3    -0.112005440872E+04   -0.42380E-04   -0.14149E-03 12031   0.685E-02    0.114E-01
RMM:   4    -0.112005434575E+04    0.62971E-04   -0.32110E-04  9020   0.215E-02    0.626E-02
RMM:   5    -0.112005433656E+04    0.91884E-05   -0.10253E-04  7221   0.142E-02    0.221E-02
RMM:   6    -0.112005434073E+04   -0.41637E-05   -0.32859E-05  7055   0.926E-03    0.228E-02
RMM:   7    -0.112005434269E+04   -0.19606E-05   -0.18919E-05  6722   0.605E-03    0.120E-02
RMM:   8    -0.112005434387E+04   -0.11792E-05   -0.11457E-05  6526   0.551E-03
  15 F= -.11200543E+04 E0= -.11200543E+04  d E =-.259594E-02  mag=    38.0000
       N       E                     dE             d eps       ncg     rms          rms(c)
DAV:   1    -0.112005076500E+04    0.35777E-02   -0.22763E+00 12504   0.175E+00    0.379E-01
RMM:   2    -0.112005623709E+04   -0.54721E-02   -0.57195E-02 12718   0.309E-01    0.253E-01
RMM:   3    -0.112005624279E+04   -0.57012E-05   -0.28487E-03 12727   0.969E-02    0.163E-01
RMM:   4    -0.112005611815E+04    0.12464E-03   -0.64006E-04 11919   0.300E-02    0.931E-02
RMM:   5    -0.112005608883E+04    0.29324E-04   -0.20369E-04  7785   0.183E-02    0.399E-02
RMM:   6    -0.112005609432E+04   -0.54943E-05   -0.50665E-05  7170   0.116E-02    0.216E-02
RMM:   7    -0.112005609654E+04   -0.22191E-05   -0.28875E-05  7040   0.759E-03    0.155E-02
RMM:   8    -0.112005609694E+04   -0.39692E-06   -0.17403E-05  6873   0.668E-03
  16 F= -.11200561E+04 E0= -.11200561E+04  d E =-.175307E-02  mag=    38.0000
       N       E                     dE             d eps       ncg     rms          rms(c)
DAV:   1    -0.112005554916E+04    0.54738E-03   -0.28550E-01 12912   0.619E-01    0.134E-01
RMM:   2    -0.112005625206E+04   -0.70290E-03   -0.73415E-03 12812   0.110E-01    0.899E-02
RMM:   3    -0.112005624464E+04    0.74123E-05   -0.32185E-04  8714   0.339E-02    0.591E-02
RMM:   4    -0.112005623036E+04    0.14283E-04   -0.77752E-05  7126   0.127E-02    0.350E-02
RMM:   5    -0.112005622857E+04    0.17943E-05   -0.36477E-05  7021   0.897E-03    0.282E-02
RMM:   6    -0.112005622997E+04   -0.14009E-05   -0.16450E-05  6738   0.628E-03    0.929E-03
RMM:   7    -0.112005623059E+04   -0.62418E-06   -0.86665E-06  6271   0.454E-03    0.930E-03
RMM:   8    -0.112005623082E+04   -0.22457E-06   -0.50645E-06  4959   0.355E-03
  17 F= -.11200562E+04 E0= -.11200562E+04  d E =-.188695E-02  mag=    38.0000
       N       E                     dE             d eps       ncg     rms          rms(c)
DAV:   1    -0.112005153516E+04    0.46954E-02   -0.26138E+00 12320   0.186E+00    0.388E-01
RMM:   2    -0.112005767646E+04   -0.61413E-02   -0.63745E-02 12509   0.324E-01    0.266E-01
RMM:   3    -0.112005773299E+04   -0.56529E-04   -0.32601E-03 12399   0.107E-01    0.167E-01
RMM:   4    -0.112005760949E+04    0.12350E-03   -0.75068E-04 12312   0.314E-02    0.966E-02
RMM:   5    -0.112005757398E+04    0.35511E-04   -0.28860E-04  8631   0.197E-02    0.476E-02
RMM:   6    -0.112005757830E+04   -0.43217E-05   -0.57810E-05  7167   0.120E-02    0.307E-02
RMM:   7    -0.112005758131E+04   -0.30105E-05   -0.29784E-05  6977   0.749E-03    0.150E-02
RMM:   8    -0.112005758224E+04   -0.92621E-06   -0.17857E-05  6774   0.672E-03
  18 F= -.11200576E+04 E0= -.11200576E+04  d E =-.135143E-02  mag=    38.0000
       N       E                     dE             d eps       ncg     rms          rms(c)
DAV:   1    -0.112005747861E+04    0.10270E-03   -0.57245E-02 12896   0.276E-01    0.578E-02
RMM:   2    -0.112005762226E+04   -0.14365E-03   -0.14848E-03 12279   0.493E-02    0.406E-02
RMM:   3    -0.112005762071E+04    0.15552E-05   -0.62131E-05  7008   0.158E-02    0.263E-02
RMM:   4    -0.112005761966E+04    0.10435E-05   -0.21488E-05  6811   0.628E-03    0.159E-02
RMM:   5    -0.112005761907E+04    0.59261E-06   -0.10454E-05  6275   0.473E-03    0.130E-02
RMM:   6    -0.112005761950E+04   -0.42636E-06   -0.50965E-06  5013   0.343E-03    0.670E-03
RMM:   7    -0.112005761977E+04   -0.27004E-06   -0.25781E-06  4188   0.282E-03    0.272E-03
RMM:   8    -0.112005761990E+04   -0.13036E-06   -0.14633E-06  3307   0.229E-03
  19 F= -.11200576E+04 E0= -.11200576E+04  d E =-.138908E-02  mag=    38.0000
       N       E                     dE             d eps       ncg     rms          rms(c)
DAV:   1    -0.112005501827E+04    0.26015E-02   -0.17451E+00 12336   0.152E+00    0.309E-01
RMM:   2    -0.112005903719E+04   -0.40189E-02   -0.42451E-02 12442   0.262E-01    0.207E-01
RMM:   3    -0.112005905201E+04   -0.14822E-04   -0.22165E-03 12109   0.900E-02    0.129E-01
RMM:   4    -0.112005896615E+04    0.85864E-04   -0.54038E-04 10824   0.264E-02    0.761E-02
RMM:   5    -0.112005894623E+04    0.19912E-04   -0.13344E-04  7311   0.163E-02    0.459E-02
RMM:   6    -0.112005895293E+04   -0.66998E-05   -0.43769E-05  7125   0.103E-02    0.207E-02
RMM:   7    -0.112005895620E+04   -0.32660E-05   -0.23501E-05  6859   0.686E-03    0.151E-02
RMM:   8    -0.112005895830E+04   -0.21030E-05   -0.14614E-05  6640   0.594E-03
  20 F= -.11200590E+04 E0= -.11200590E+04  d E =-.133841E-02  mag=    38.0000
       N       E                     dE             d eps       ncg     rms          rms(c)
DAV:   1    -0.112005767904E+04    0.12772E-02   -0.68084E-01 12368   0.949E-01    0.193E-01
RMM:   2    -0.112005929002E+04   -0.16110E-02   -0.16980E-02 12764   0.165E-01    0.130E-01
RMM:   3    -0.112005927428E+04    0.15740E-04   -0.80874E-04 10905   0.517E-02    0.824E-02
RMM:   4    -0.112005923664E+04    0.37638E-04   -0.16484E-04  7435   0.172E-02    0.525E-02
RMM:   5    -0.112005923233E+04    0.43137E-05   -0.66467E-05  7130   0.122E-02    0.407E-02
RMM:   6    -0.112005923584E+04   -0.35082E-05   -0.27889E-05  6881   0.819E-03    0.137E-02
RMM:   7    -0.112005923768E+04   -0.18448E-05   -0.14306E-05  6571   0.574E-03    0.138E-02
RMM:   8    -0.112005923891E+04   -0.12292E-05   -0.86385E-06  5845   0.447E-03
  21 F= -.11200592E+04 E0= -.11200592E+04  d E =-.161901E-02  mag=    38.0000
       N       E                     dE             d eps       ncg     rms          rms(c)
DAV:   1    -0.112005702530E+04    0.22124E-02   -0.14966E+00 12416   0.141E+00    0.275E-01
RMM:   2    -0.112006050612E+04   -0.34808E-02   -0.36475E-02 12455   0.242E-01    0.184E-01
RMM:   3    -0.112006052095E+04   -0.14830E-04   -0.18884E-03 12055   0.829E-02    0.117E-01
RMM:   4    -0.112006044985E+04    0.71101E-04   -0.45519E-04 10323   0.242E-02    0.673E-02
RMM:   5    -0.112006043472E+04    0.15131E-04   -0.11584E-04  7257   0.150E-02    0.339E-02
RMM:   6    -0.112006043923E+04   -0.45083E-05   -0.38646E-05  7089   0.951E-03    0.192E-02
RMM:   7    -0.112006044138E+04   -0.21463E-05   -0.22462E-05  6767   0.643E-03    0.134E-02
RMM:   8    -0.112006044225E+04   -0.86919E-06   -0.13634E-05  6595   0.563E-03
  22 F= -.11200604E+04 E0= -.11200604E+04  d E =-.120334E-02  mag=    38.0000
