<?xml version="1.0" encoding="ISO-8859-1"?>
<modeling>
 <generator>
  <i name="program" type="string">vasp </i>
  <i name="version" type="string">5.4.1  </i>
  <i name="subversion" type="string">05Feb16 (build Jan 25 2017 20:16:33) complex                          parallel </i>
  <i name="platform" type="string">BWXE6 </i>
  <i name="date" type="string">2019 07 13 </i>
  <i name="time" type="string">11:30:44 </i>
 </generator>
 <incar>
  <i type="string" name="SYSTEM"> STF</i>
  <i type="string" name="PREC">normal</i>
  <i type="string" name="ALGO"> Fast</i>
  <i type="int" name="ISPIN">     2</i>
  <i type="int" name="NELM">    40</i>
  <i type="int" name="NELMIN">     8</i>
  <i type="int" name="IBRION">     2</i>
  <i name="EDIFF">      0.00010000</i>
  <i name="EDIFFG">     -0.03000000</i>
  <i type="int" name="NSW">    30</i>
  <i type="int" name="ISIF">     3</i>
  <i name="ENCUT">    520.00000000</i>
  <i type="int" name="NBANDS">   768</i>
  <v name="MAGMOM">      0.60000000      0.60000000      0.60000000      0.60000000      0.60000000      0.60000000      0.60000000      0.60000000      0.60000000      0.60000000      0.60000000      0.60000000      0.60000000      0.60000000      0.60000000      0.60000000      0.60000000      0.60000000      0.60000000      0.60000000
      0.60000000      0.60000000      0.60000000      0.60000000      0.60000000      0.60000000      0.60000000      0.60000000      0.60000000      0.60000000      0.60000000      0.60000000      0.60000000      0.60000000      0.60000000      0.60000000      0.60000000      0.60000000      0.60000000      0.60000000
      0.60000000      0.60000000      0.60000000      0.60000000      0.60000000      0.60000000      0.60000000      0.60000000      0.60000000      0.60000000      0.60000000      0.60000000      0.60000000      0.60000000      0.60000000      0.60000000      5.00000000      5.00000000      5.00000000      5.00000000
      5.00000000      5.00000000      5.00000000      5.00000000      0.60000000      0.60000000      0.60000000      0.60000000      0.60000000      0.60000000      0.60000000      0.60000000      0.60000000      0.60000000      0.60000000      0.60000000      0.60000000      0.60000000      0.60000000      0.60000000
      0.60000000      0.60000000      0.60000000      0.60000000      0.60000000      0.60000000      0.60000000      0.60000000      0.60000000      0.60000000      0.60000000      0.60000000      0.60000000      0.60000000      0.60000000      0.60000000      0.60000000      0.60000000      0.60000000      0.60000000
      0.60000000      0.60000000      0.60000000      0.60000000      0.60000000      0.60000000      0.60000000      0.60000000      0.60000000      0.60000000      0.60000000      0.60000000      0.60000000      0.60000000      0.60000000      0.60000000      0.60000000      0.60000000      0.60000000      0.60000000
      0.60000000      0.60000000      0.60000000      0.60000000      0.60000000      0.60000000      0.60000000      0.60000000      0.60000000      0.60000000      0.60000000      0.60000000      0.60000000      0.60000000      0.60000000      0.60000000      0.60000000      0.60000000      0.60000000      0.60000000
      0.60000000      0.60000000      0.60000000      0.60000000      0.60000000      0.60000000      0.60000000      0.60000000      0.60000000      0.60000000      0.60000000      0.60000000      0.60000000      0.60000000      0.60000000      0.60000000</v>
  <i type="string" name="LREAL"> Auto</i>
  <i type="int" name="ISMEAR">     0</i>
  <i name="SIGMA">      0.05000000</i>
  <i type="int" name="LMAXMIX">     4</i>
  <v type="int" name="KPOINT_BSE">    -1     0     0     0</v>
  <i type="int" name="NELM">    40</i>
  <i type="logical" name="LDAU"> T  </i>
  <v type="int" name="LDAUTYPE">     2</v>
  <v type="int" name="LDAUL">     0     2     2     0</v>
  <v name="LDAUU">      0.00000000      3.00000000      5.00000000      0.00000000</v>
  <v name="LDAUJ">      0.00000000      0.00000000      0.00000000      0.00000000</v>
  <i type="int" name="LDAUPRINT">     1</i>
 </incar>
 <kpoints>
  <generation param="Monkhorst-Pack">
   <v type="int" name="divisions">       2        2        2 </v>
   <v name="usershift">      0.00000000       0.00000000       0.00000000 </v>
   <v name="genvec1">      0.50000000      -0.00000000      -0.00000000 </v>
   <v name="genvec2">     -0.00000000       0.50000000       0.00000000 </v>
   <v name="genvec3">      0.00000000      -0.00000000       0.50000000 </v>
   <v name="shift">      0.50000000       0.50000000       0.50000000 </v>
  </generation>
  <varray name="kpointlist" >
   <v>       0.25000000       0.25000000       0.25000000 </v>
   <v>      -0.25000000       0.25000000       0.25000000 </v>
   <v>       0.25000000      -0.25000000       0.25000000 </v>
   <v>      -0.25000000      -0.25000000       0.25000000 </v>
  </varray>
  <varray name="weights" >
   <v>       0.25000000 </v>
   <v>       0.25000000 </v>
   <v>       0.25000000 </v>
   <v>       0.25000000 </v>
  </varray>
 </kpoints>
 <parameters>
  <separator name="general" >
   <i type="string" name="SYSTEM">STF</i>
   <i type="logical" name="LCOMPAT"> F  </i>
  </separator>
  <separator name="electronic" >
   <i type="string" name="PREC">normal</i>
   <i name="ENMAX">    520.00000000</i>
   <i name="ENAUG">    605.39200000</i>
   <i name="EDIFF">      0.00010000</i>
   <i type="int" name="IALGO">    68</i>
   <i type="int" name="IWAVPR">    11</i>
   <i type="int" name="NBANDS">   768</i>
   <i name="NELECT">   1032.00000000</i>
   <i type="int" name="TURBO">     0</i>
   <i type="int" name="IRESTART">     0</i>
   <i type="int" name="NREBOOT">     0</i>
   <i type="int" name="NMIN">     0</i>
   <i name="EREF">      0.00000000</i>
   <separator name="electronic smearing" >
    <i type="int" name="ISMEAR">     0</i>
    <i name="SIGMA">      0.05000000</i>
    <i name="KSPACING">      0.50000000</i>
    <i type="logical" name="KGAMMA"> T  </i>
   </separator>
   <separator name="electronic projectors" >
    <i type="logical" name="LREAL"> T  </i>
    <v name="ROPT">     -0.00050000     -0.00050000     -0.00050000     -0.00050000</v>
    <i type="int" name="LMAXPAW">  -100</i>
    <i type="int" name="LMAXMIX">     4</i>
    <i type="logical" name="NLSPLINE"> F  </i>
   </separator>
   <separator name="electronic startup" >
    <i type="int" name="ISTART">     1</i>
    <i type="int" name="ICHARG">     0</i>
    <i type="int" name="INIWAV">     1</i>
   </separator>
   <separator name="electronic spin" >
    <i type="int" name="ISPIN">     2</i>
    <i type="logical" name="LNONCOLLINEAR"> F  </i>
    <v name="MAGMOM">      0.60000000      0.60000000      0.60000000      0.60000000      0.60000000      0.60000000      0.60000000      0.60000000      0.60000000      0.60000000      0.60000000      0.60000000      0.60000000      0.60000000      0.60000000      0.60000000      0.60000000      0.60000000      0.60000000      0.60000000
      0.60000000      0.60000000      0.60000000      0.60000000      0.60000000      0.60000000      0.60000000      0.60000000      0.60000000      0.60000000      0.60000000      0.60000000      0.60000000      0.60000000      0.60000000      0.60000000      0.60000000      0.60000000      0.60000000      0.60000000
      0.60000000      0.60000000      0.60000000      0.60000000      0.60000000      0.60000000      0.60000000      0.60000000      0.60000000      0.60000000      0.60000000      0.60000000      0.60000000      0.60000000      0.60000000      0.60000000      5.00000000      5.00000000      5.00000000      5.00000000
      5.00000000      5.00000000      5.00000000      5.00000000      0.60000000      0.60000000      0.60000000      0.60000000      0.60000000      0.60000000      0.60000000      0.60000000      0.60000000      0.60000000      0.60000000      0.60000000      0.60000000      0.60000000      0.60000000      0.60000000
      0.60000000      0.60000000      0.60000000      0.60000000      0.60000000      0.60000000      0.60000000      0.60000000      0.60000000      0.60000000      0.60000000      0.60000000      0.60000000      0.60000000      0.60000000      0.60000000      0.60000000      0.60000000      0.60000000      0.60000000
      0.60000000      0.60000000      0.60000000      0.60000000      0.60000000      0.60000000      0.60000000      0.60000000      0.60000000      0.60000000      0.60000000      0.60000000      0.60000000      0.60000000      0.60000000      0.60000000      0.60000000      0.60000000      0.60000000      0.60000000
      0.60000000      0.60000000      0.60000000      0.60000000      0.60000000      0.60000000      0.60000000      0.60000000      0.60000000      0.60000000      0.60000000      0.60000000      0.60000000      0.60000000      0.60000000      0.60000000      0.60000000      0.60000000      0.60000000      0.60000000
      0.60000000      0.60000000      0.60000000      0.60000000      0.60000000      0.60000000      0.60000000      0.60000000      0.60000000      0.60000000      0.60000000      0.60000000      0.60000000      0.60000000      0.60000000      0.60000000</v>
    <i name="NUPDOWN">     -1.00000000</i>
    <i type="logical" name="LSORBIT"> F  </i>
    <v name="SAXIS">      0.00000000      0.00000000      1.00000000</v>
    <i type="logical" name="LSPIRAL"> F  </i>
    <v name="QSPIRAL">      0.00000000      0.00000000      0.00000000</v>
    <i type="logical" name="LZEROZ"> F  </i>
   </separator>
   <separator name="electronic exchange-correlation" >
    <i type="logical" name="LASPH"> F  </i>
    <i type="logical" name="LMETAGGA"> F  </i>
   </separator>
   <separator name="electronic convergence" >
    <i type="int" name="NELM">    40</i>
    <i type="int" name="NELMDL">     0</i>
    <i type="int" name="NELMIN">     8</i>
    <i name="ENINI">    520.00000000</i>
    <separator name="electronic convergence detail" >
     <i type="logical" name="LDIAG"> T  </i>
     <i type="logical" name="LSUBROT"> F  </i>
     <i name="WEIMIN">      0.00100000</i>
     <i name="EBREAK">      0.00000003</i>
     <i name="DEPER">      0.30000000</i>
     <i type="int" name="NRMM">     4</i>
     <i name="TIME">      0.40000000</i>
    </separator>
   </separator>
   <separator name="electronic mixer" >
    <i name="AMIX">      0.40000000</i>
    <i name="BMIX">      1.00000000</i>
    <i name="AMIN">      0.10000000</i>
    <i name="AMIX_MAG">      1.60000000</i>
    <i name="BMIX_MAG">      1.00000000</i>
    <separator name="electronic mixer details" >
     <i type="int" name="IMIX">     4</i>
     <i type="logical" name="MIXFIRST"> F  </i>
     <i type="int" name="MAXMIX">   -45</i>
     <i name="WC">    100.00000000</i>
     <i type="int" name="INIMIX">     1</i>
     <i type="int" name="MIXPRE">     1</i>
     <i type="int" name="MREMOVE">     5</i>
    </separator>
   </separator>
   <separator name="electronic dipolcorrection" >
    <i type="logical" name="LDIPOL"> F  </i>
    <i type="logical" name="LMONO"> F  </i>
    <i type="int" name="IDIPOL">     0</i>
    <i name="EPSILON">      1.00000000</i>
    <v name="DIPOL">   -100.00000000   -100.00000000   -100.00000000</v>
    <i name="EFIELD">      0.00000000</i>
   </separator>
  </separator>
  <separator name="grids" >
   <i type="int" name="NGX">    64</i>
   <i type="int" name="NGY">    64</i>
   <i type="int" name="NGZ">    90</i>
   <i type="int" name="NGXF">   128</i>
   <i type="int" name="NGYF">   128</i>
   <i type="int" name="NGZF">   180</i>
   <i type="logical" name="ADDGRID"> F  </i>
  </separator>
  <separator name="ionic" >
   <i type="int" name="NSW">    30</i>
   <i type="int" name="IBRION">     2</i>
   <i type="int" name="ISIF">     3</i>
   <i name="PSTRESS">      0.00000000</i>
   <i name="EDIFFG">     -0.03000000</i>
   <i type="int" name="NFREE">     1</i>
   <i name="POTIM">      0.50000000</i>
   <i name="SMASS">     -3.00000000</i>
   <i name="SCALEE">      1.00000000</i>
  </separator>
  <separator name="ionic md" >
   <i name="TEBEG">      0.00010000</i>
   <i name="TEEND">      0.00010000</i>
   <i type="int" name="NBLOCK">     1</i>
   <i type="int" name="KBLOCK">    30</i>
   <i type="int" name="NPACO">   256</i>
   <i name="APACO">     16.00000000</i>
  </separator>
  <separator name="symmetry" >
   <i type="int" name="ISYM">     2</i>
   <i name="SYMPREC">      0.00001000</i>
  </separator>
  <separator name="dos" >
   <i type="logical" name="LORBIT"> F  </i>
   <v name="RWIGS">     -1.00000000     -1.00000000     -1.00000000     -1.00000000</v>
   <i type="int" name="NEDOS">   301</i>
   <i name="EMIN">     10.00000000</i>
   <i name="EMAX">    -10.00000000</i>
   <i name="EFERMI">      0.00000000</i>
  </separator>
  <separator name="writing" >
   <i type="int" name="NWRITE">     2</i>
   <i type="logical" name="LWAVE"> T  </i>
   <i type="logical" name="LCHARG"> T  </i>
   <i type="logical" name="LPARD"> F  </i>
   <i type="logical" name="LVTOT"> F  </i>
   <i type="logical" name="LVHAR"> F  </i>
   <i type="logical" name="LELF"> F  </i>
   <i type="logical" name="LOPTICS"> F  </i>
   <v name="STM">      0.00000000      0.00000000      0.00000000      0.00000000      0.00000000      0.00000000      0.00000000</v>
  </separator>
  <separator name="performance" >
   <i type="int" name="NPAR">     2</i>
   <i type="int" name="NSIM">     4</i>
   <i type="int" name="NBLK">    -1</i>
   <i type="logical" name="LPLANE"> T  </i>
   <i type="logical" name="LSCALAPACK"> T  </i>
   <i type="logical" name="LSCAAWARE"> F  </i>
   <i type="logical" name="LSCALU"> F  </i>
   <i type="logical" name="LASYNC"> F  </i>
   <i type="logical" name="LORBITALREAL"> F  </i>
  </separator>
  <separator name="miscellaneous" >
   <i type="int" name="IDIOT">     3</i>
   <i type="logical" name="LMUSIC"> F  </i>
   <v name="POMASS">     87.62000000     47.88000000     55.84700000     16.00000000</v>
   <v name="DARWINR">      0.00000000      0.00000000      0.00000000      0.00000000</v>
   <v name="DARWINV">      1.00000000      1.00000000      1.00000000      1.00000000</v>
   <i type="logical" name="LCORR"> T  </i>
  </separator>
  <i type="logical" name="GGA_COMPAT"> T  </i>
  <i type="logical" name="LBERRY"> F  </i>
  <i type="int" name="ICORELEVEL">     0</i>
  <i type="logical" name="LDAU"> T  </i>
  <v type="int" name="LDAUTYPE">     2</v>
  <v type="int" name="LDAUL">     0</v>
  <v name="LDAUU">      0.00000000</v>
  <v name="LDAUJ">      0.00000000</v>
  <i type="int" name="LDAUPRINT">     1</i>
  <i type="int" name="I_CONSTRAINED_M">     0</i>
  <separator name="electronic exchange-correlation" >
   <i type="string" name="GGA">--</i>
   <i type="int" name="VOSKOWN">     0</i>
   <i type="logical" name="LHFCALC"> F  </i>
   <i type="string" name="PRECFOCK"></i>
   <i type="logical" name="LSYMGRAD"> F  </i>
   <i type="logical" name="LHFONE"> F  </i>
   <i type="logical" name="LRHFCALC"> F  </i>
   <i type="logical" name="LTHOMAS"> F  </i>
   <i type="logical" name="LMODELHF"> F  </i>
   <i name="ENCUT4O">     -1.00000000</i>
   <i type="int" name="EXXOEP">     0</i>
   <i type="int" name="FOURORBIT">     0</i>
   <i name="AEXX">      0.00000000</i>
   <i name="HFALPHA">      0.00000000</i>
   <i name="MCALPHA">      0.00000000</i>
   <i name="ALDAX">      1.00000000</i>
   <i name="AGGAX">      1.00000000</i>
   <i name="ALDAC">      1.00000000</i>
   <i name="AGGAC">      1.00000000</i>
   <i type="int" name="NKREDX">     1</i>
   <i type="int" name="NKREDY">     1</i>
   <i type="int" name="NKREDZ">     1</i>
   <i type="logical" name="SHIFTRED"> F  </i>
   <i type="logical" name="ODDONLY"> F  </i>
   <i type="logical" name="EVENONLY"> F  </i>
   <i type="int" name="LMAXFOCK">     0</i>
   <i type="int" name="NMAXFOCKAE">     0</i>
   <i type="logical" name="LFOCKAEDFT"> F  </i>
   <i name="HFSCREEN">      0.00000000</i>
   <i name="HFSCREENC">      0.00000000</i>
   <i type="int" name="NBANDSGWLOW">     0</i>
  </separator>
  <separator name="vdW DFT" >
   <i type="logical" name="LUSE_VDW"> F  </i>
   <i name="Zab_VDW">     -0.84910000</i>
   <i name="PARAM1">      0.12340000</i>
   <i name="PARAM2">      1.00000000</i>
   <i name="PARAM3">      0.00000000</i>
  </separator>
  <separator name="model GW" >
   <i type="int" name="MODEL_GW">     0</i>
   <i name="MODEL_EPS0">      7.72586639</i>
   <i name="MODEL_ALPHA">      1.00000000</i>
  </separator>
  <separator name="linear response parameters" >
   <i type="logical" name="LEPSILON"> F  </i>
   <i type="logical" name="LRPA"> F  </i>
   <i type="logical" name="LNABLA"> F  </i>
   <i type="logical" name="LVEL"> F  </i>
   <i type="int" name="KINTER">     0</i>
   <i name="CSHIFT">      0.10000000</i>
   <i name="OMEGAMAX">     -1.00000000</i>
   <i name="DEG_THRESHOLD">      0.00200000</i>
  </separator>
  <separator name="orbital magnetization" >
   <i type="logical" name="NUCIND"> F  </i>
   <v name="MAGPOS">      0.00000000      0.00000000      0.00000000</v>
   <i type="logical" name="LNICSALL"> T  </i>
   <i type="logical" name="ORBITALMAG"> F  </i>
   <i type="logical" name="LMAGBLOCH"> F  </i>
   <i type="logical" name="LCHIMAG"> F  </i>
   <i type="logical" name="LGAUGE"> T  </i>
   <i type="int" name="MAGATOM">     0</i>
   <v name="MAGDIPOL">      0.00000000      0.00000000      0.00000000</v>
   <v name="AVECCONST">      0.00000000      0.00000000      0.00000000</v>
  </separator>
  <separator name="response functions" >
   <i type="logical" name="LADDER"> F  </i>
   <i type="logical" name="LFXC"> F  </i>
   <i type="logical" name="LHARTREE"> T  </i>
   <i type="int" name="IBSE">     0</i>
   <v type="int" name="KPOINT">    -1     0     0     0</v>
   <i type="logical" name="LTCTE"> F  </i>
   <i type="logical" name="LTETE"> F  </i>
   <i type="logical" name="LTRIPLET"> F  </i>
   <i type="logical" name="LFXCEPS"> F  </i>
   <i type="logical" name="LFXHEG"> F  </i>
   <i type="int" name="NATURALO">     0</i>
   <i type="logical" name="L2ORDER"> F  </i>
   <i type="logical" name="LUSEW"> F  </i>
   <i name="ENCUTGW">     -2.00000000</i>
   <i name="ENCUTGWSOFT">     -2.00000000</i>
   <i name="ENCUTLF">     -1.00000000</i>
   <i type="int" name="LMAXMP2">    -1</i>
   <i name="SCISSOR">      0.00000000</i>
   <i type="int" name="NOMEGA">     0</i>
   <i type="int" name="NOMEGAR">     0</i>
   <i type="int" name="NBANDSGW">    -1</i>
   <i type="int" name="NBANDSO">    -1</i>
   <i type="int" name="NBANDSV">    -1</i>
   <i type="int" name="NELM">    40</i>
   <i type="int" name="NELMHF">     1</i>
   <i type="int" name="DIM">     3</i>
   <i type="int" name="ANTIRES">     0</i>
   <i name="OMEGAMAX">    -30.00000000</i>
   <i name="OMEGAMIN">    -30.00000000</i>
   <i name="OMEGATL">   -200.00000000</i>
   <i type="int" name="OMEGAGRID">     0</i>
   <i name="CSHIFT">     -0.10000000</i>
   <i type="logical" name="SELFENERGY"> F  </i>
   <i type="logical" name="LSPECTRAL"> F  </i>
   <i type="logical" name="LSPECTRALGW"> F  </i>
   <i type="logical" name="LSINGLES"> F  </i>
   <i type="logical" name="LFERMIGW"> F  </i>
   <i type="logical" name="ODDONLYGW"> F  </i>
   <i type="logical" name="EVENONLYGW"> F  </i>
   <i type="int" name="NKREDLFX">     1</i>
   <i type="int" name="NKREDLFY">     1</i>
   <i type="int" name="NKREDLFZ">     1</i>
   <i type="int" name="MAXMEM">  1800</i>
   <i type="int" name="TELESCOPE">     0</i>
   <i type="int" name="TAUPAR">     1</i>
   <i type="int" name="OMEGAPAR">    -1</i>
   <i name="LAMBDA">      1.00000000</i>
  </separator>
  <separator name="External order field" >
   <i name="OFIELD_KAPPA">      0.00000000</i>
   <v name="OFIELD_K">      0.00000000      0.00000000      0.00000000</v>
   <i name="OFIELD_Q6_NEAR">      0.00000000</i>
   <i name="OFIELD_Q6_FAR">      0.00000000</i>
   <i name="OFIELD_A">      0.00000000</i>
  </separator>
 </parameters>
 <atominfo>
  <atoms>     156 </atoms>
  <types>       4 </types>
  <array name="atoms" >
   <dimension dim="1">ion</dimension>
   <field type="string">element</field>
   <field type="int">atomtype</field>
   <set>
    <rc><c>Sr</c><c>   1</c></rc>
    <rc><c>Sr</c><c>   1</c></rc>
    <rc><c>Sr</c><c>   1</c></rc>
    <rc><c>Sr</c><c>   1</c></rc>
    <rc><c>Sr</c><c>   1</c></rc>
    <rc><c>Sr</c><c>   1</c></rc>
    <rc><c>Sr</c><c>   1</c></rc>
    <rc><c>Sr</c><c>   1</c></rc>
    <rc><c>Sr</c><c>   1</c></rc>
    <rc><c>Sr</c><c>   1</c></rc>
    <rc><c>Sr</c><c>   1</c></rc>
    <rc><c>Sr</c><c>   1</c></rc>
    <rc><c>Sr</c><c>   1</c></rc>
    <rc><c>Sr</c><c>   1</c></rc>
    <rc><c>Sr</c><c>   1</c></rc>
    <rc><c>Sr</c><c>   1</c></rc>
    <rc><c>Sr</c><c>   1</c></rc>
    <rc><c>Sr</c><c>   1</c></rc>
    <rc><c>Sr</c><c>   1</c></rc>
    <rc><c>Sr</c><c>   1</c></rc>
    <rc><c>Sr</c><c>   1</c></rc>
    <rc><c>Sr</c><c>   1</c></rc>
    <rc><c>Sr</c><c>   1</c></rc>
    <rc><c>Sr</c><c>   1</c></rc>
    <rc><c>Sr</c><c>   1</c></rc>
    <rc><c>Sr</c><c>   1</c></rc>
    <rc><c>Sr</c><c>   1</c></rc>
    <rc><c>Sr</c><c>   1</c></rc>
    <rc><c>Sr</c><c>   1</c></rc>
    <rc><c>Sr</c><c>   1</c></rc>
    <rc><c>Sr</c><c>   1</c></rc>
    <rc><c>Sr</c><c>   1</c></rc>
    <rc><c>Ti</c><c>   2</c></rc>
    <rc><c>Ti</c><c>   2</c></rc>
    <rc><c>Ti</c><c>   2</c></rc>
    <rc><c>Ti</c><c>   2</c></rc>
    <rc><c>Ti</c><c>   2</c></rc>
    <rc><c>Ti</c><c>   2</c></rc>
    <rc><c>Ti</c><c>   2</c></rc>
    <rc><c>Ti</c><c>   2</c></rc>
    <rc><c>Ti</c><c>   2</c></rc>
    <rc><c>Ti</c><c>   2</c></rc>
    <rc><c>Ti</c><c>   2</c></rc>
    <rc><c>Ti</c><c>   2</c></rc>
    <rc><c>Ti</c><c>   2</c></rc>
    <rc><c>Ti</c><c>   2</c></rc>
    <rc><c>Ti</c><c>   2</c></rc>
    <rc><c>Ti</c><c>   2</c></rc>
    <rc><c>Ti</c><c>   2</c></rc>
    <rc><c>Ti</c><c>   2</c></rc>
    <rc><c>Ti</c><c>   2</c></rc>
    <rc><c>Ti</c><c>   2</c></rc>
    <rc><c>Ti</c><c>   2</c></rc>
    <rc><c>Ti</c><c>   2</c></rc>
    <rc><c>Ti</c><c>   2</c></rc>
    <rc><c>Ti</c><c>   2</c></rc>
    <rc><c>Fe</c><c>   3</c></rc>
    <rc><c>Fe</c><c>   3</c></rc>
    <rc><c>Fe</c><c>   3</c></rc>
    <rc><c>Fe</c><c>   3</c></rc>
    <rc><c>Fe</c><c>   3</c></rc>
    <rc><c>Fe</c><c>   3</c></rc>
    <rc><c>Fe</c><c>   3</c></rc>
    <rc><c>Fe</c><c>   3</c></rc>
    <rc><c>O </c><c>   4</c></rc>
    <rc><c>O </c><c>   4</c></rc>
    <rc><c>O </c><c>   4</c></rc>
    <rc><c>O </c><c>   4</c></rc>
    <rc><c>O </c><c>   4</c></rc>
    <rc><c>O </c><c>   4</c></rc>
    <rc><c>O </c><c>   4</c></rc>
    <rc><c>O </c><c>   4</c></rc>
    <rc><c>O </c><c>   4</c></rc>
    <rc><c>O </c><c>   4</c></rc>
    <rc><c>O </c><c>   4</c></rc>
    <rc><c>O </c><c>   4</c></rc>
    <rc><c>O </c><c>   4</c></rc>
    <rc><c>O </c><c>   4</c></rc>
    <rc><c>O </c><c>   4</c></rc>
    <rc><c>O </c><c>   4</c></rc>
    <rc><c>O </c><c>   4</c></rc>
    <rc><c>O </c><c>   4</c></rc>
    <rc><c>O </c><c>   4</c></rc>
    <rc><c>O </c><c>   4</c></rc>
    <rc><c>O </c><c>   4</c></rc>
    <rc><c>O </c><c>   4</c></rc>
    <rc><c>O </c><c>   4</c></rc>
    <rc><c>O </c><c>   4</c></rc>
    <rc><c>O </c><c>   4</c></rc>
    <rc><c>O </c><c>   4</c></rc>
    <rc><c>O </c><c>   4</c></rc>
    <rc><c>O </c><c>   4</c></rc>
    <rc><c>O </c><c>   4</c></rc>
    <rc><c>O </c><c>   4</c></rc>
    <rc><c>O </c><c>   4</c></rc>
    <rc><c>O </c><c>   4</c></rc>
    <rc><c>O </c><c>   4</c></rc>
    <rc><c>O </c><c>   4</c></rc>
    <rc><c>O </c><c>   4</c></rc>
    <rc><c>O </c><c>   4</c></rc>
    <rc><c>O </c><c>   4</c></rc>
    <rc><c>O </c><c>   4</c></rc>
    <rc><c>O </c><c>   4</c></rc>
    <rc><c>O </c><c>   4</c></rc>
    <rc><c>O </c><c>   4</c></rc>
    <rc><c>O </c><c>   4</c></rc>
    <rc><c>O </c><c>   4</c></rc>
    <rc><c>O </c><c>   4</c></rc>
    <rc><c>O </c><c>   4</c></rc>
    <rc><c>O </c><c>   4</c></rc>
    <rc><c>O </c><c>   4</c></rc>
    <rc><c>O </c><c>   4</c></rc>
    <rc><c>O </c><c>   4</c></rc>
    <rc><c>O </c><c>   4</c></rc>
    <rc><c>O </c><c>   4</c></rc>
    <rc><c>O </c><c>   4</c></rc>
    <rc><c>O </c><c>   4</c></rc>
    <rc><c>O </c><c>   4</c></rc>
    <rc><c>O </c><c>   4</c></rc>
    <rc><c>O </c><c>   4</c></rc>
    <rc><c>O </c><c>   4</c></rc>
    <rc><c>O </c><c>   4</c></rc>
    <rc><c>O </c><c>   4</c></rc>
    <rc><c>O </c><c>   4</c></rc>
    <rc><c>O </c><c>   4</c></rc>
    <rc><c>O </c><c>   4</c></rc>
    <rc><c>O </c><c>   4</c></rc>
    <rc><c>O </c><c>   4</c></rc>
    <rc><c>O </c><c>   4</c></rc>
    <rc><c>O </c><c>   4</c></rc>
    <rc><c>O </c><c>   4</c></rc>
    <rc><c>O </c><c>   4</c></rc>
    <rc><c>O </c><c>   4</c></rc>
    <rc><c>O </c><c>   4</c></rc>
    <rc><c>O </c><c>   4</c></rc>
    <rc><c>O </c><c>   4</c></rc>
    <rc><c>O </c><c>   4</c></rc>
    <rc><c>O </c><c>   4</c></rc>
    <rc><c>O </c><c>   4</c></rc>
    <rc><c>O </c><c>   4</c></rc>
    <rc><c>O </c><c>   4</c></rc>
    <rc><c>O </c><c>   4</c></rc>
    <rc><c>O </c><c>   4</c></rc>
    <rc><c>O </c><c>   4</c></rc>
    <rc><c>O </c><c>   4</c></rc>
    <rc><c>O </c><c>   4</c></rc>
    <rc><c>O </c><c>   4</c></rc>
    <rc><c>O </c><c>   4</c></rc>
    <rc><c>O </c><c>   4</c></rc>
    <rc><c>O </c><c>   4</c></rc>
    <rc><c>O </c><c>   4</c></rc>
    <rc><c>O </c><c>   4</c></rc>
    <rc><c>O </c><c>   4</c></rc>
    <rc><c>O </c><c>   4</c></rc>
    <rc><c>O </c><c>   4</c></rc>
    <rc><c>O </c><c>   4</c></rc>
   </set>
  </array>
  <array name="atomtypes" >
   <dimension dim="1">type</dimension>
   <field type="int">atomspertype</field>
   <field type="string">element</field>
   <field>mass</field>
   <field>valence</field>
   <field type="string">pseudopotential</field>
   <set>
    <rc><c>  32</c><c>Sr</c><c>     87.62000000</c><c>     10.00000000</c><c>  PAW_PBE Sr_sv 07Sep2000               </c></rc>
    <rc><c>  24</c><c>Ti</c><c>     47.88000000</c><c>      4.00000000</c><c>  PAW_PBE Ti 08Apr2002                  </c></rc>
    <rc><c>   8</c><c>Fe</c><c>     55.84700000</c><c>      8.00000000</c><c>  PAW_PBE Fe 06Sep2000                  </c></rc>
    <rc><c>  92</c><c>O </c><c>     16.00000000</c><c>      6.00000000</c><c>  PAW_PBE O 08Apr2002                   </c></rc>
   </set>
  </array>
 </atominfo>
 <structure name="initialpos" >
  <crystal>
   <varray name="basis" >
    <v>      11.21828522       0.01514893       0.02727996 </v>
    <v>       0.01520695      11.24860088      -0.00843506 </v>
    <v>       0.03903177      -0.01202505      15.91839168 </v>
   </varray>
   <i name="volume">   2008.72526185 </i>
   <varray name="rec_basis" >
    <v>       0.08914088      -0.00012067      -0.00021866 </v>
    <v>      -0.00012021       0.08890016       0.00006745 </v>
    <v>      -0.00015283       0.00004731       0.06282083 </v>
   </varray>
  </crystal>
  <varray name="positions" >
   <v>       0.98210417       0.24965140       0.12606326 </v>
   <v>       0.99772012       0.24858811       0.62657656 </v>
   <v>       0.00089188       0.74895008       0.12289791 </v>
   <v>       0.99865721       0.75077397       0.62707335 </v>
   <v>       0.51471107       0.24852640       0.11592349 </v>
   <v>       0.50265609       0.25108842       0.62983733 </v>
   <v>       0.49778812       0.75672927       0.12266251 </v>
   <v>       0.49952042       0.75050326       0.62349962 </v>
   <v>       0.97871780       0.24988925       0.38313784 </v>
   <v>       0.99678310       0.24975009       0.87007574 </v>
   <v>       0.00140183       0.74880457       0.37780015 </v>
   <v>       0.99923965       0.74480770       0.87291538 </v>
   <v>       0.50937070       0.24571529       0.38585117 </v>
   <v>       0.51137134       0.25375266       0.86941224 </v>
   <v>       0.49634718       0.75090029       0.37738279 </v>
   <v>       0.50315360       0.74950421       0.87156151 </v>
   <v>       0.24938830       0.98304726       0.12546359 </v>
   <v>       0.24933695       0.99528529       0.62518596 </v>
   <v>       0.25157207       0.51680915       0.12227042 </v>
   <v>       0.25130719       0.50346224       0.62570657 </v>
   <v>       0.74795837       0.00015697       0.12159021 </v>
   <v>       0.75041831       0.99958528       0.62865052 </v>
   <v>       0.75096484       0.49770145       0.12433162 </v>
   <v>       0.74975199       0.49977554       0.62660056 </v>
   <v>       0.24891738       0.98620845       0.38201725 </v>
   <v>       0.25304914       0.99277275       0.86886006 </v>
   <v>       0.25180393       0.51534247       0.38158999 </v>
   <v>       0.25302902       0.50742119       0.86880931 </v>
   <v>       0.75174024       0.00181045       0.37922471 </v>
   <v>       0.74873810       0.00193937       0.87201051 </v>
   <v>       0.74971637       0.50068115       0.37742861 </v>
   <v>       0.75085153       0.49876763       0.87141141 </v>
   <v>       0.00161938       0.99808338       0.50200241 </v>
   <v>       0.99693738       0.50397599       0.24948207 </v>
   <v>       0.49533305       0.99994263       0.00168688 </v>
   <v>       0.49872693       0.99853367       0.50044643 </v>
   <v>       0.49846995       0.50002328       0.49859607 </v>
   <v>       0.25173270       0.24896391       0.50262069 </v>
   <v>       0.50319489       0.50143080       0.74926252 </v>
   <v>       0.75194906       0.24998161       0.99672992 </v>
   <v>       0.74904421       0.24984658       0.50514203 </v>
   <v>       0.24861429       0.75055972       0.99777707 </v>
   <v>       0.24983982       0.24889243       0.74887643 </v>
   <v>       0.74215860       0.25181365       0.25107224 </v>
   <v>       0.25175139       0.75036633       0.25202206 </v>
   <v>       0.49990462       0.50169387       0.00139390 </v>
   <v>       0.00079733       0.49666314       0.00027306 </v>
   <v>       0.75160565       0.75181791       0.24962494 </v>
   <v>       0.75057829       0.75060835       0.50096074 </v>
   <v>       0.99845434       0.99716363       0.24879939 </v>
   <v>       0.99907276       0.00010635       0.75282411 </v>
   <v>       0.99908941       0.49776054       0.74919900 </v>
   <v>       0.25002678       0.74981340       0.74755764 </v>
   <v>       0.50216484       0.00045396       0.74939647 </v>
   <v>       0.74911428       0.74662241       0.99919465 </v>
   <v>       0.00265938       0.49990118       0.50008056 </v>
   <v>       0.51437006       0.99237991       0.25232684 </v>
   <v>       0.75132981       0.24969371       0.74989767 </v>
   <v>       0.20739417       0.25684029       0.27487203 </v>
   <v>       0.24964836       0.74984255       0.50209475 </v>
   <v>       0.98725243       0.98965121       0.99744220 </v>
   <v>       0.74961347       0.74993844       0.75072073 </v>
   <v>       0.51057439       0.51609154       0.24895448 </v>
   <v>       0.25764471       0.26334707       0.98607251 </v>
   <v>       0.13360086       0.13808042       0.22411246 </v>
   <v>       0.11467713       0.13576256       0.73793455 </v>
   <v>       0.10887568       0.64133670       0.24547634 </v>
   <v>       0.11399350       0.63472709       0.74635235 </v>
   <v>       0.59545111       0.15089991       0.24745075 </v>
   <v>       0.61259260       0.13463422       0.74731833 </v>
   <v>       0.60948562       0.65196415       0.24290440 </v>
   <v>       0.61208064       0.63548486       0.74048532 </v>
   <v>       0.63479325       0.38729047       0.75361787 </v>
   <v>       0.38560410       0.36207173       0.76006268 </v>
   <v>       0.24875248       0.75406553       0.12461218 </v>
   <v>       0.88726749       0.63457077       0.00357525 </v>
   <v>       0.89322145       0.35965540       0.25407898 </v>
   <v>       0.88882601       0.36402407       0.75432686 </v>
   <v>       0.38444098       0.87086081       0.25236181 </v>
   <v>       0.88788267       0.86552208       0.76213317 </v>
   <v>       0.13593481       0.61062905       0.50421288 </v>
   <v>       0.36321584       0.11426900       0.73782259 </v>
   <v>       0.35974948       0.61097631       0.24847350 </v>
   <v>       0.36289199       0.61277331       0.74692743 </v>
   <v>       0.86064308       0.11089673       0.24396100 </v>
   <v>       0.86573809       0.11213891       0.74932629 </v>
   <v>       0.85901620       0.60875588       0.24460917 </v>
   <v>       0.86721798       0.61219644       0.74601161 </v>
   <v>       0.11089873       0.34190962       0.00991004 </v>
   <v>       0.13898939       0.38584167       0.75636944 </v>
   <v>       0.13941803       0.89105495       0.25331520 </v>
   <v>       0.13632081       0.88503455       0.75346154 </v>
   <v>       0.89724334       0.86045694       0.25033679 </v>
   <v>       0.63252560       0.61534481       0.01562231 </v>
   <v>       0.65211320       0.89667470       0.25464082 </v>
   <v>       0.63373252       0.88771883       0.76227207 </v>
   <v>       0.36202671       0.39077732       0.99166129 </v>
   <v>       0.36391263       0.38284581       0.49023758 </v>
   <v>       0.36269591       0.88572416       0.99674094 </v>
   <v>       0.36634122       0.88628864       0.49797918 </v>
   <v>       0.86283634       0.38643183       0.99727573 </v>
   <v>       0.86572575       0.38423202       0.49378124 </v>
   <v>       0.85756889       0.88487864       0.99221023 </v>
   <v>       0.74224210       0.73141623       0.87847779 </v>
   <v>       0.11259390       0.86515081       0.49495151 </v>
   <v>       0.13947289       0.11332665       0.50484289 </v>
   <v>       0.13728203       0.60957173       0.00255450 </v>
   <v>       0.86586093       0.88645962       0.49045474 </v>
   <v>       0.62470612       0.12114297       0.00508947 </v>
   <v>       0.38522761       0.86464102       0.75679322 </v>
   <v>       0.63663671       0.61274797       0.50194157 </v>
   <v>       0.15696299       0.39932525       0.24168918 </v>
   <v>       0.11736195       0.35961007       0.48362391 </v>
   <v>       0.11640983       0.86816565       0.99767247 </v>
   <v>       0.64061075       0.39353764       0.25279998 </v>
   <v>       0.61409664       0.36721108       0.99697163 </v>
   <v>       0.60943254       0.86885644       0.99709312 </v>
   <v>       0.61530678       0.86290842       0.49056994 </v>
   <v>       0.34836706       0.13610724       0.02850617 </v>
   <v>       0.38686400       0.63809993       0.00598382 </v>
   <v>       0.38762362       0.63348260       0.50095802 </v>
   <v>       0.88570008       0.13658513       0.00250508 </v>
   <v>       0.88683884       0.13535653       0.50434530 </v>
   <v>       0.74908218       0.24089077       0.37474240 </v>
   <v>       0.49356323       0.48774951       0.62378399 </v>
   <v>       0.01214475       0.00607447       0.12063808 </v>
   <v>       0.99598158       0.98726115       0.62452328 </v>
   <v>       0.99767279       0.49454402       0.12465094 </v>
   <v>       0.00516472       0.48368470       0.62330918 </v>
   <v>       0.49388918       0.99954033       0.12808603 </v>
   <v>       0.50833690       0.98403017       0.62586091 </v>
   <v>       0.38952947       0.13664108       0.51322457 </v>
   <v>       0.00600979       0.01853715       0.37087477 </v>
   <v>       0.01737405       0.01959157       0.87853153 </v>
   <v>       0.00207459       0.50784976       0.37232272 </v>
   <v>       0.00508371       0.50121475       0.87754208 </v>
   <v>       0.49236340       0.01305563       0.37468268 </v>
   <v>       0.48627771       0.02200008       0.87944539 </v>
   <v>       0.49609817       0.49779975       0.37145654 </v>
   <v>       0.50484176       0.51472364       0.87679829 </v>
   <v>       0.28469552       0.21599011       0.36677880 </v>
   <v>       0.23980502       0.22317718       0.87299319 </v>
   <v>       0.24904341       0.74482676       0.37431196 </v>
   <v>       0.24932950       0.74030230       0.87532339 </v>
   <v>       0.61558518       0.36379344       0.49825883 </v>
   <v>       0.74798414       0.24332453       0.87628174 </v>
   <v>       0.75509577       0.74012840       0.37283347 </v>
   <v>       0.63775719       0.11288627       0.50337823 </v>
   <v>       0.48321941       0.47544309       0.12979509 </v>
   <v>       0.24767927       0.26991745       0.62260857 </v>
   <v>       0.88742645       0.63388961       0.50436063 </v>
   <v>       0.25153878       0.75714165       0.62619203 </v>
   <v>       0.74775550       0.25719660       0.12520847 </v>
   <v>       0.75217998       0.25794472       0.62508505 </v>
   <v>       0.75488394       0.76352311       0.12502518 </v>
   <v>       0.75198875       0.76431730       0.62308083 </v>
  </varray>
 </structure>
 <calculation>
  <scstep>
   <time name="dav">  325.54  325.54</time>
   <time name="total">  329.24  329.32</time>
   <energy>
    <i name="alphaZ">   5618.16817471 </i>
    <i name="ewald"> -61171.40860575 </i>
    <i name="hartreedc"> -16339.11347800 </i>
    <i name="XCdc">   2962.24204917 </i>
    <i name="pawpsdc"> 113488.50149961 </i>
    <i name="pawaedc">-112387.27435971 </i>
    <i name="eentropy">     -0.00000000 </i>
    <i name="bandstr">  -7074.59010193 </i>
    <i name="atom">  73783.44779670 </i>
    <i name="e_fr_energy">  -1120.02702521 </i>
    <i name="e_wo_entrp">  -1120.02702521 </i>
    <i name="e_0_energy">  -1120.02702521 </i>
   </energy>
  </scstep>
  <scstep>
   <time name="diag">   33.37   33.37</time>
   <time name="diis">   32.43   32.43</time>
   <time name="orth">   18.92   18.92</time>
   <time name="total">   88.52   88.56</time>
   <energy>
    <i name="e_fr_energy">  -1120.02703039 </i>
    <i name="e_wo_entrp">  -1120.02703039 </i>
    <i name="e_0_energy">  -1120.02703039 </i>
   </energy>
  </scstep>
  <scstep>
   <time name="diag">   33.41   33.41</time>
   <time name="diis">   30.77   30.77</time>
   <time name="orth">   18.96   18.96</time>
   <time name="total">   86.92   86.94</time>
   <energy>
    <i name="e_fr_energy">  -1120.02702871 </i>
    <i name="e_wo_entrp">  -1120.02702870 </i>
    <i name="e_0_energy">  -1120.02702870 </i>
   </energy>
  </scstep>
  <scstep>
   <time name="diag">   33.38   33.39</time>
   <time name="diis">   28.81   28.81</time>
   <time name="orth">   18.87   18.86</time>
   <time name="total">   84.84   84.87</time>
   <energy>
    <i name="e_fr_energy">  -1120.02703061 </i>
    <i name="e_wo_entrp">  -1120.02703061 </i>
    <i name="e_0_energy">  -1120.02703061 </i>
   </energy>
  </scstep>
  <scstep>
   <time name="diag">   33.35   33.35</time>
   <time name="diis">   28.39   28.39</time>
   <time name="orth">   18.93   18.93</time>
   <time name="total">   84.43   84.44</time>
   <energy>
    <i name="e_fr_energy">  -1120.02703216 </i>
    <i name="e_wo_entrp">  -1120.02703216 </i>
    <i name="e_0_energy">  -1120.02703216 </i>
   </energy>
  </scstep>
  <scstep>
   <time name="diag">   33.36   33.37</time>
   <time name="diis">   26.87   26.87</time>
   <time name="orth">   18.93   18.93</time>
   <time name="total">   82.93   82.95</time>
   <energy>
    <i name="e_fr_energy">  -1120.02703437 </i>
    <i name="e_wo_entrp">  -1120.02703437 </i>
    <i name="e_0_energy">  -1120.02703437 </i>
   </energy>
  </scstep>
  <scstep>
   <time name="diag">   33.36   33.37</time>
   <time name="diis">   26.83   26.85</time>
   <time name="orth">   18.95   18.95</time>
   <time name="total">   82.91   82.97</time>
   <energy>
    <i name="e_fr_energy">  -1120.02703647 </i>
    <i name="e_wo_entrp">  -1120.02703647 </i>
    <i name="e_0_energy">  -1120.02703647 </i>
   </energy>
  </scstep>
  <scstep>
   <time name="diag">   33.40   33.43</time>
   <time name="diis">   26.09   26.13</time>
   <time name="orth">   18.93   18.92</time>
   <time name="total">   79.00   79.08</time>
   <energy>
    <i name="alphaZ">   5618.16817471 </i>
    <i name="ewald"> -61171.40860575 </i>
    <i name="hartreedc"> -16339.08920372 </i>
    <i name="XCdc">   2962.24002584 </i>
    <i name="pawpsdc"> 113488.44162970 </i>
    <i name="pawaedc">-112387.19426743 </i>
    <i name="eentropy">     -0.00000000 </i>
    <i name="bandstr">  -7074.63258812 </i>
    <i name="atom">  73783.44779670 </i>
    <i name="e_fr_energy">  -1120.02703808 </i>
    <i name="e_wo_entrp">  -1120.02703808 </i>
    <i name="e_0_energy">  -1120.02703808 </i>
   </energy>
  </scstep>
  <structure>
   <crystal>
    <varray name="basis" >
     <v>      11.21828522       0.01514893       0.02727996 </v>
     <v>       0.01520695      11.24860088      -0.00843506 </v>
     <v>       0.03903177      -0.01202505      15.91839168 </v>
    </varray>
    <i name="volume">   2008.72526185 </i>
    <varray name="rec_basis" >
     <v>       0.08914088      -0.00012067      -0.00021866 </v>
     <v>      -0.00012021       0.08890016       0.00006745 </v>
     <v>      -0.00015283       0.00004731       0.06282083 </v>
    </varray>
   </crystal>
   <varray name="positions" >
    <v>       0.98210417       0.24965140       0.12606326 </v>
    <v>       0.99772012       0.24858811       0.62657656 </v>
    <v>       0.00089188       0.74895008       0.12289791 </v>
    <v>       0.99865721       0.75077397       0.62707335 </v>
    <v>       0.51471107       0.24852640       0.11592349 </v>
    <v>       0.50265609       0.25108842       0.62983733 </v>
    <v>       0.49778812       0.75672927       0.12266251 </v>
    <v>       0.49952042       0.75050326       0.62349962 </v>
    <v>       0.97871780       0.24988925       0.38313784 </v>
    <v>       0.99678310       0.24975009       0.87007574 </v>
    <v>       0.00140183       0.74880457       0.37780015 </v>
    <v>       0.99923965       0.74480770       0.87291538 </v>
    <v>       0.50937070       0.24571529       0.38585117 </v>
    <v>       0.51137134       0.25375266       0.86941224 </v>
    <v>       0.49634718       0.75090029       0.37738279 </v>
    <v>       0.50315360       0.74950421       0.87156151 </v>
    <v>       0.24938830       0.98304726       0.12546359 </v>
    <v>       0.24933695       0.99528529       0.62518596 </v>
    <v>       0.25157207       0.51680915       0.12227042 </v>
    <v>       0.25130719       0.50346224       0.62570657 </v>
    <v>       0.74795837       0.00015697       0.12159021 </v>
    <v>       0.75041831       0.99958528       0.62865052 </v>
    <v>       0.75096484       0.49770145       0.12433162 </v>
    <v>       0.74975199       0.49977554       0.62660056 </v>
    <v>       0.24891738       0.98620845       0.38201725 </v>
    <v>       0.25304914       0.99277275       0.86886006 </v>
    <v>       0.25180393       0.51534247       0.38158999 </v>
    <v>       0.25302902       0.50742119       0.86880931 </v>
    <v>       0.75174024       0.00181045       0.37922471 </v>
    <v>       0.74873810       0.00193937       0.87201051 </v>
    <v>       0.74971637       0.50068115       0.37742861 </v>
    <v>       0.75085153       0.49876763       0.87141141 </v>
    <v>       0.00161938       0.99808338       0.50200241 </v>
    <v>       0.99693738       0.50397599       0.24948207 </v>
    <v>       0.49533305       0.99994263       0.00168688 </v>
    <v>       0.49872693       0.99853367       0.50044643 </v>
    <v>       0.49846995       0.50002328       0.49859607 </v>
    <v>       0.25173270       0.24896391       0.50262069 </v>
    <v>       0.50319489       0.50143080       0.74926252 </v>
    <v>       0.75194906       0.24998161       0.99672992 </v>
    <v>       0.74904421       0.24984658       0.50514203 </v>
    <v>       0.24861429       0.75055972       0.99777707 </v>
    <v>       0.24983982       0.24889243       0.74887643 </v>
    <v>       0.74215860       0.25181365       0.25107224 </v>
    <v>       0.25175139       0.75036633       0.25202206 </v>
    <v>       0.49990462       0.50169387       0.00139390 </v>
    <v>       0.00079733       0.49666314       0.00027306 </v>
    <v>       0.75160565       0.75181791       0.24962494 </v>
    <v>       0.75057829       0.75060835       0.50096074 </v>
    <v>       0.99845434       0.99716363       0.24879939 </v>
    <v>       0.99907276       0.00010635       0.75282411 </v>
    <v>       0.99908941       0.49776054       0.74919900 </v>
    <v>       0.25002678       0.74981340       0.74755764 </v>
    <v>       0.50216484       0.00045396       0.74939647 </v>
    <v>       0.74911428       0.74662241       0.99919465 </v>
    <v>       0.00265938       0.49990118       0.50008056 </v>
    <v>       0.51437006       0.99237991       0.25232684 </v>
    <v>       0.75132981       0.24969371       0.74989767 </v>
    <v>       0.20739417       0.25684029       0.27487203 </v>
    <v>       0.24964836       0.74984255       0.50209475 </v>
    <v>       0.98725243       0.98965121       0.99744220 </v>
    <v>       0.74961347       0.74993844       0.75072073 </v>
    <v>       0.51057439       0.51609154       0.24895448 </v>
    <v>       0.25764471       0.26334707       0.98607251 </v>
    <v>       0.13360086       0.13808042       0.22411246 </v>
    <v>       0.11467713       0.13576256       0.73793455 </v>
    <v>       0.10887568       0.64133670       0.24547634 </v>
    <v>       0.11399350       0.63472709       0.74635235 </v>
    <v>       0.59545111       0.15089991       0.24745075 </v>
    <v>       0.61259260       0.13463422       0.74731833 </v>
    <v>       0.60948562       0.65196415       0.24290440 </v>
    <v>       0.61208064       0.63548486       0.74048532 </v>
    <v>       0.63479325       0.38729047       0.75361787 </v>
    <v>       0.38560410       0.36207173       0.76006268 </v>
    <v>       0.24875248       0.75406553       0.12461218 </v>
    <v>       0.88726749       0.63457077       0.00357525 </v>
    <v>       0.89322145       0.35965540       0.25407898 </v>
    <v>       0.88882601       0.36402407       0.75432686 </v>
    <v>       0.38444098       0.87086081       0.25236181 </v>
    <v>       0.88788267       0.86552208       0.76213317 </v>
    <v>       0.13593481       0.61062905       0.50421288 </v>
    <v>       0.36321584       0.11426900       0.73782259 </v>
    <v>       0.35974948       0.61097631       0.24847350 </v>
    <v>       0.36289199       0.61277331       0.74692743 </v>
    <v>       0.86064308       0.11089673       0.24396100 </v>
    <v>       0.86573809       0.11213891       0.74932629 </v>
    <v>       0.85901620       0.60875588       0.24460917 </v>
    <v>       0.86721798       0.61219644       0.74601161 </v>
    <v>       0.11089873       0.34190962       0.00991004 </v>
    <v>       0.13898939       0.38584167       0.75636944 </v>
    <v>       0.13941803       0.89105495       0.25331520 </v>
    <v>       0.13632081       0.88503455       0.75346154 </v>
    <v>       0.89724334       0.86045694       0.25033679 </v>
    <v>       0.63252560       0.61534481       0.01562231 </v>
    <v>       0.65211320       0.89667470       0.25464082 </v>
    <v>       0.63373252       0.88771883       0.76227207 </v>
    <v>       0.36202671       0.39077732       0.99166129 </v>
    <v>       0.36391263       0.38284581       0.49023758 </v>
    <v>       0.36269591       0.88572416       0.99674094 </v>
    <v>       0.36634122       0.88628864       0.49797918 </v>
    <v>       0.86283634       0.38643183       0.99727573 </v>
    <v>       0.86572575       0.38423202       0.49378124 </v>
    <v>       0.85756889       0.88487864       0.99221023 </v>
    <v>       0.74224210       0.73141623       0.87847779 </v>
    <v>       0.11259390       0.86515081       0.49495151 </v>
    <v>       0.13947289       0.11332665       0.50484289 </v>
    <v>       0.13728203       0.60957173       0.00255450 </v>
    <v>       0.86586093       0.88645962       0.49045474 </v>
    <v>       0.62470612       0.12114297       0.00508947 </v>
    <v>       0.38522761       0.86464102       0.75679322 </v>
    <v>       0.63663671       0.61274797       0.50194157 </v>
    <v>       0.15696299       0.39932525       0.24168918 </v>
    <v>       0.11736195       0.35961007       0.48362391 </v>
    <v>       0.11640983       0.86816565       0.99767247 </v>
    <v>       0.64061075       0.39353764       0.25279998 </v>
    <v>       0.61409664       0.36721108       0.99697163 </v>
    <v>       0.60943254       0.86885644       0.99709312 </v>
    <v>       0.61530678       0.86290842       0.49056994 </v>
    <v>       0.34836706       0.13610724       0.02850617 </v>
    <v>       0.38686400       0.63809993       0.00598382 </v>
    <v>       0.38762362       0.63348260       0.50095802 </v>
    <v>       0.88570008       0.13658513       0.00250508 </v>
    <v>       0.88683884       0.13535653       0.50434530 </v>
    <v>       0.74908218       0.24089077       0.37474240 </v>
    <v>       0.49356323       0.48774951       0.62378399 </v>
    <v>       0.01214475       0.00607447       0.12063808 </v>
    <v>       0.99598158       0.98726115       0.62452328 </v>
    <v>       0.99767279       0.49454402       0.12465094 </v>
    <v>       0.00516472       0.48368470       0.62330918 </v>
    <v>       0.49388918       0.99954033       0.12808603 </v>
    <v>       0.50833690       0.98403017       0.62586091 </v>
    <v>       0.38952947       0.13664108       0.51322457 </v>
    <v>       0.00600979       0.01853715       0.37087477 </v>
    <v>       0.01737405       0.01959157       0.87853153 </v>
    <v>       0.00207459       0.50784976       0.37232272 </v>
    <v>       0.00508371       0.50121475       0.87754208 </v>
    <v>       0.49236340       0.01305563       0.37468268 </v>
    <v>       0.48627771       0.02200008       0.87944539 </v>
    <v>       0.49609817       0.49779975       0.37145654 </v>
    <v>       0.50484176       0.51472364       0.87679829 </v>
    <v>       0.28469552       0.21599011       0.36677880 </v>
    <v>       0.23980502       0.22317718       0.87299319 </v>
    <v>       0.24904341       0.74482676       0.37431196 </v>
    <v>       0.24932950       0.74030230       0.87532339 </v>
    <v>       0.61558518       0.36379344       0.49825883 </v>
    <v>       0.74798414       0.24332453       0.87628174 </v>
    <v>       0.75509577       0.74012840       0.37283347 </v>
    <v>       0.63775719       0.11288627       0.50337823 </v>
    <v>       0.48321941       0.47544309       0.12979509 </v>
    <v>       0.24767927       0.26991745       0.62260857 </v>
    <v>       0.88742645       0.63388961       0.50436063 </v>
    <v>       0.25153878       0.75714165       0.62619203 </v>
    <v>       0.74775550       0.25719660       0.12520847 </v>
    <v>       0.75217998       0.25794472       0.62508505 </v>
    <v>       0.75488394       0.76352311       0.12502518 </v>
    <v>       0.75198875       0.76431730       0.62308083 </v>
   </varray>
  </structure>
  <varray name="forces" >
   <v>      -0.01362262      -0.01809288      -0.03187191 </v>
   <v>      -0.00424741       0.01770716      -0.00030885 </v>
   <v>       0.00450988       0.01226209      -0.00237569 </v>
   <v>       0.00660259      -0.01982291       0.02277212 </v>
   <v>      -0.03243617       0.00837610      -0.00360742 </v>
   <v>      -0.02026812       0.00987886      -0.01189006 </v>
   <v>       0.02065963      -0.02282850      -0.00226386 </v>
   <v>       0.01592710      -0.02415553      -0.00046927 </v>
   <v>      -0.00468230       0.01565746       0.02231170 </v>
   <v>       0.01630972       0.00213515       0.00714576 </v>
   <v>       0.01746957       0.00141301       0.01114593 </v>
   <v>      -0.01290128       0.02549290      -0.01509657 </v>
   <v>       0.03171877       0.00648201      -0.01135765 </v>
   <v>      -0.03895019      -0.01087003       0.00574646 </v>
   <v>       0.01217037      -0.01305921       0.01115678 </v>
   <v>       0.00477847      -0.01334109      -0.01170984 </v>
   <v>       0.00521364      -0.03288240      -0.02588362 </v>
   <v>       0.01616582       0.02463192      -0.00175278 </v>
   <v>       0.02234914       0.00269519      -0.02969869 </v>
   <v>      -0.01063009      -0.02167235      -0.01181351 </v>
   <v>       0.03761116       0.00756313       0.01604753 </v>
   <v>      -0.00825933       0.00015134       0.01055261 </v>
   <v>       0.00310403      -0.00198302      -0.00342222 </v>
   <v>      -0.00714409       0.01941214       0.02853736 </v>
   <v>       0.02202739      -0.00761622      -0.00178942 </v>
   <v>      -0.00830538       0.02183497      -0.00364805 </v>
   <v>      -0.00217281      -0.00225469       0.00409805 </v>
   <v>       0.00516679      -0.01746167       0.00672191 </v>
   <v>      -0.00601756      -0.00420513       0.00718817 </v>
   <v>      -0.01516636       0.00625088      -0.01726925 </v>
   <v>       0.00563007      -0.01586815       0.01619284 </v>
   <v>      -0.00886092       0.00225191       0.00112959 </v>
   <v>      -0.04382939      -0.00410392      -0.05282467 </v>
   <v>       0.01172700      -0.02585666       0.01974954 </v>
   <v>      -0.01389893       0.02044182       0.00576181 </v>
   <v>       0.02574905      -0.05139522      -0.04089714 </v>
   <v>      -0.00947054       0.00495292      -0.03049186 </v>
   <v>       0.01632953       0.02031694       0.11102460 </v>
   <v>       0.02410887       0.00655041       0.00988873 </v>
   <v>      -0.00698626      -0.03889140      -0.03183988 </v>
   <v>       0.03807920      -0.01611382      -0.01502066 </v>
   <v>       0.00550502      -0.00496604      -0.00984029 </v>
   <v>      -0.00582229       0.00353630       0.05133072 </v>
   <v>       0.03699013       0.00220699      -0.00026834 </v>
   <v>      -0.01000517      -0.02066084       0.03429389 </v>
   <v>      -0.01868495       0.00347654      -0.00678420 </v>
   <v>       0.02619476      -0.02137763       0.06013083 </v>
   <v>      -0.00854811      -0.00473215       0.03069819 </v>
   <v>      -0.01288496       0.01257529      -0.01080210 </v>
   <v>       0.02660865       0.00980718      -0.06113683 </v>
   <v>      -0.04360980      -0.00289860       0.05519285 </v>
   <v>      -0.02107472      -0.04246314       0.00638648 </v>
   <v>       0.03082159      -0.00617240       0.02915706 </v>
   <v>       0.01200237       0.00498542       0.04534721 </v>
   <v>      -0.04374123      -0.00975447      -0.08405346 </v>
   <v>      -0.00738399      -0.00105556      -0.05290672 </v>
   <v>       0.00459013      -0.00531481       0.00478234 </v>
   <v>       0.02260864       0.01801152       0.01951449 </v>
   <v>      -0.06770451       0.05874401      -0.16861411 </v>
   <v>       0.01808984      -0.00907173      -0.01676173 </v>
   <v>      -0.02255353      -0.02281132       0.03529887 </v>
   <v>       0.00087244       0.01544687       0.03592607 </v>
   <v>       0.02462604       0.04123297       0.00787376 </v>
   <v>       0.00130869      -0.02861146      -0.07267134 </v>
   <v>       0.02556658       0.03667334       0.04595533 </v>
   <v>      -0.00585019      -0.01979211      -0.01499357 </v>
   <v>      -0.01104995      -0.02938643       0.00395760 </v>
   <v>       0.04237525       0.02182157       0.01964753 </v>
   <v>       0.02254913      -0.02433544       0.00165236 </v>
   <v>       0.02955715       0.01668907      -0.01249669 </v>
   <v>      -0.00061579      -0.04817313      -0.02078397 </v>
   <v>      -0.00534370      -0.03347229      -0.01442203 </v>
   <v>      -0.03241977      -0.01044186       0.00498860 </v>
   <v>       0.00431772       0.03923810      -0.02964160 </v>
   <v>       0.01876211       0.00905186       0.00684859 </v>
   <v>       0.00884704      -0.00388666       0.01603213 </v>
   <v>      -0.04323841      -0.01484987      -0.01689556 </v>
   <v>      -0.01983415       0.02597182       0.00620766 </v>
   <v>      -0.00363122       0.01028090       0.00434438 </v>
   <v>      -0.00055964       0.04080385      -0.00883288 </v>
   <v>      -0.00692957       0.02249872      -0.00469299 </v>
   <v>       0.02456640      -0.01262067      -0.00355387 </v>
   <v>      -0.00360791       0.01050785      -0.01280213 </v>
   <v>       0.02624211       0.01535120      -0.00902048 </v>
   <v>       0.02128432       0.03541971       0.02131790 </v>
   <v>       0.04667095      -0.01731259      -0.02385360 </v>
   <v>      -0.01263774       0.06017459      -0.01221601 </v>
   <v>       0.00224321      -0.00551111       0.00121429 </v>
   <v>      -0.03038127       0.00992068       0.01541822 </v>
   <v>      -0.04096312       0.00397973      -0.01962378 </v>
   <v>      -0.04006411      -0.02051153       0.00466529 </v>
   <v>       0.00055687      -0.01607495      -0.01635219 </v>
   <v>      -0.00672337       0.00712018       0.03765360 </v>
   <v>      -0.01018470      -0.01924192       0.01835354 </v>
   <v>      -0.01566364      -0.01372413       0.01650329 </v>
   <v>      -0.01756490      -0.03221704      -0.00781724 </v>
   <v>       0.04324921       0.03463421       0.01364734 </v>
   <v>      -0.03531046      -0.00917229      -0.00283934 </v>
   <v>      -0.01479094      -0.01464413       0.00445058 </v>
   <v>       0.00606942      -0.00084111       0.03347547 </v>
   <v>       0.03342242       0.01849200      -0.00371868 </v>
   <v>      -0.00291936       0.01189582      -0.00517801 </v>
   <v>       0.02388895      -0.01261850      -0.02052493 </v>
   <v>       0.00065553      -0.00378656       0.03468107 </v>
   <v>       0.02835829       0.02379868      -0.01274060 </v>
   <v>      -0.00413580       0.00860703      -0.04291991 </v>
   <v>      -0.03299128       0.02406414      -0.01905867 </v>
   <v>       0.01237472      -0.02341770      -0.00107722 </v>
   <v>       0.04460705       0.01303945       0.00688160 </v>
   <v>      -0.02575680       0.00194172      -0.01402153 </v>
   <v>      -0.01280404      -0.01623648       0.00404043 </v>
   <v>       0.00488625      -0.06893219       0.04119184 </v>
   <v>       0.00894020      -0.01420297      -0.01303741 </v>
   <v>       0.03431743      -0.02116346      -0.00054555 </v>
   <v>      -0.01339656      -0.03596747       0.00082957 </v>
   <v>       0.00643376       0.03032566      -0.01622073 </v>
   <v>      -0.00520634       0.00280749       0.02429611 </v>
   <v>      -0.01418560       0.03580878       0.00126385 </v>
   <v>      -0.02349978       0.00692299      -0.00042355 </v>
   <v>       0.00955319       0.00308312       0.00561221 </v>
   <v>      -0.02615234       0.00682047       0.00639617 </v>
   <v>      -0.00032734       0.00197847       0.02086900 </v>
   <v>      -0.00688926      -0.00128574      -0.00513665 </v>
   <v>      -0.01466517       0.00203867      -0.01622812 </v>
   <v>       0.00957363      -0.01602924       0.02178160 </v>
   <v>      -0.02420098      -0.02744437       0.02840362 </v>
   <v>       0.00579601      -0.00897894       0.04495409 </v>
   <v>       0.01104068      -0.03251871       0.03095234 </v>
   <v>      -0.00700251       0.00768495       0.02179124 </v>
   <v>       0.01272256      -0.00664140       0.00955061 </v>
   <v>      -0.01171032      -0.00431425      -0.01306534 </v>
   <v>      -0.03634541      -0.00493433      -0.03455212 </v>
   <v>       0.02050774       0.01741719      -0.00287039 </v>
   <v>      -0.00979131       0.02225709      -0.05433957 </v>
   <v>       0.00432602       0.01720538       0.01813657 </v>
   <v>       0.00063811      -0.00798228      -0.03703443 </v>
   <v>       0.00008549       0.02696305      -0.02781809 </v>
   <v>       0.01051678      -0.00296014      -0.01474191 </v>
   <v>      -0.00659021       0.01617312      -0.02192912 </v>
   <v>       0.01678661      -0.02041269       0.00961345 </v>
   <v>      -0.00775738       0.01262045       0.08415082 </v>
   <v>       0.00091556       0.03308423      -0.01758331 </v>
   <v>       0.00538040       0.00483096       0.02032087 </v>
   <v>      -0.03662864       0.03036794       0.00828977 </v>
   <v>       0.01456311       0.00800689       0.01478138 </v>
   <v>      -0.00985265      -0.01224899      -0.01065512 </v>
   <v>       0.02060483      -0.01941991       0.01071596 </v>
   <v>      -0.04023021       0.02132230       0.00863384 </v>
   <v>      -0.01581918       0.01123738      -0.01068819 </v>
   <v>       0.01207344      -0.01847601       0.00953258 </v>
   <v>      -0.00545920       0.02034939       0.01501742 </v>
   <v>      -0.00204268       0.00082981       0.00376137 </v>
   <v>       0.01742039      -0.02226722       0.00717989 </v>
   <v>      -0.01423282      -0.00448597       0.01208362 </v>
   <v>       0.03252236       0.02512525      -0.02187159 </v>
   <v>      -0.00157433       0.02158114      -0.02519019 </v>
  </varray>
  <varray name="stress" >
   <v>       0.42888710      -0.08574379       0.36054791 </v>
   <v>      -0.08574357       0.25229883      -0.26479280 </v>
   <v>       0.36054745      -0.26479294       0.66380218 </v>
  </varray>
  <energy>
   <i name="e_fr_energy">  -1120.02703808 </i>
   <i name="e_wo_entrp">  -1120.02703808 </i>
   <i name="e_0_energy">     -0.00000000 </i>
  </energy>
  <time name="totalsc"> 1072.97 1075.17</time>
 </calculation>
 <calculation>
  <scstep>
   <time name="dav">  285.65  285.67</time>
   <time name="total">  289.39  289.45</time>
   <energy>
    <i name="alphaZ">   5615.23965954 </i>
    <i name="ewald"> -61159.75952779 </i>
    <i name="hartreedc"> -16337.20854848 </i>
    <i name="XCdc">   2961.56211710 </i>
    <i name="pawpsdc"> 113488.48589070 </i>
    <i name="pawaedc">-112387.23793734 </i>
    <i name="eentropy">     -0.00000000 </i>
    <i name="bandstr">  -7084.55431762 </i>
    <i name="atom">  73783.44779670 </i>
    <i name="e_fr_energy">  -1120.02486719 </i>
    <i name="e_wo_entrp">  -1120.02486719 </i>
    <i name="e_0_energy">  -1120.02486719 </i>
   </energy>
  </scstep>
  <scstep>
   <time name="diag">   33.26   33.27</time>
   <time name="diis">   52.17   52.17</time>
   <time name="orth">   18.91   18.91</time>
   <time name="total">  108.09  108.15</time>
   <energy>
    <i name="e_fr_energy">  -1120.03243245 </i>
    <i name="e_wo_entrp">  -1120.03243245 </i>
    <i name="e_0_energy">  -1120.03243245 </i>
   </energy>
  </scstep>
  <scstep>
   <time name="diag">   33.24   33.26</time>
   <time name="diis">   54.34   54.36</time>
   <time name="orth">   18.89   18.89</time>
   <time name="total">  110.25  110.39</time>
   <energy>
    <i name="e_fr_energy">  -1120.03272437 </i>
    <i name="e_wo_entrp">  -1120.03272437 </i>
    <i name="e_0_energy">  -1120.03272437 </i>
   </energy>
  </scstep>
  <scstep>
   <time name="diag">   33.28   33.28</time>
   <time name="diis">   51.54   51.55</time>
   <time name="orth">   18.88   18.88</time>
   <time name="total">  107.46  107.54</time>
   <energy>
    <i name="e_fr_energy">  -1120.03223331 </i>
    <i name="e_wo_entrp">  -1120.03223331 </i>
    <i name="e_0_energy">  -1120.03223331 </i>
   </energy>
  </scstep>
  <scstep>
   <time name="diag">   33.26   33.26</time>
   <time name="diis">   44.75   44.75</time>
   <time name="orth">   18.88   18.88</time>
   <time name="total">  100.65  100.77</time>
   <energy>
    <i name="e_fr_energy">  -1120.03213545 </i>
    <i name="e_wo_entrp">  -1120.03213545 </i>
    <i name="e_0_energy">  -1120.03213545 </i>
   </energy>
  </scstep>
  <scstep>
   <time name="diag">   33.25   33.25</time>
   <time name="diis">   33.15   33.16</time>
   <time name="orth">   18.87   18.87</time>
   <time name="total">   89.03   89.13</time>
   <energy>
    <i name="e_fr_energy">  -1120.03212991 </i>
    <i name="e_wo_entrp">  -1120.03212991 </i>
    <i name="e_0_energy">  -1120.03212991 </i>
   </energy>
  </scstep>
  <scstep>
   <time name="diag">   33.35   33.36</time>
   <time name="diis">   32.39   32.39</time>
   <time name="orth">   18.86   18.86</time>
   <time name="total">   88.35   88.42</time>
   <energy>
    <i name="e_fr_energy">  -1120.03212812 </i>
    <i name="e_wo_entrp">  -1120.03212812 </i>
    <i name="e_0_energy">  -1120.03212812 </i>
   </energy>
  </scstep>
  <scstep>
   <time name="diag">   33.37   33.37</time>
   <time name="diis">   32.15   32.16</time>
   <time name="orth">   18.85   18.85</time>
   <time name="total">   84.95   85.04</time>
   <energy>
    <i name="alphaZ">   5615.23965954 </i>
    <i name="ewald"> -61159.75952779 </i>
    <i name="hartreedc"> -16344.44453866 </i>
    <i name="XCdc">   2962.05136943 </i>
    <i name="pawpsdc"> 113361.98661899 </i>
    <i name="pawaedc">-112260.69576932 </i>
    <i name="eentropy">     -0.00000000 </i>
    <i name="bandstr">  -7077.85773545 </i>
    <i name="atom">  73783.44779670 </i>
    <i name="e_fr_energy">  -1120.03212657 </i>
    <i name="e_wo_entrp">  -1120.03212657 </i>
    <i name="e_0_energy">  -1120.03212657 </i>
   </energy>
  </scstep>
  <structure>
   <crystal>
    <varray name="basis" >
     <v>      11.22015399       0.01477466       0.02885364 </v>
     <v>       0.01483435      11.24970159      -0.00958994 </v>
     <v>       0.04126391      -0.01366179      15.92249526 </v>
    </varray>
    <i name="volume">   2009.77287206 </i>
    <varray name="rec_basis" >
     <v>       0.08912609      -0.00011772      -0.00023108 </v>
     <v>      -0.00011725       0.08889147       0.00007657 </v>
     <v>      -0.00016158       0.00005375       0.06280469 </v>
    </varray>
   </crystal>
   <varray name="positions" >
    <v>       0.98204603       0.24957377       0.12596673 </v>
    <v>       0.99770176       0.24866407       0.62657569 </v>
    <v>       0.00091123       0.74900264       0.12289070 </v>
    <v>       0.99868548       0.75068899       0.62714227 </v>
    <v>       0.51457157       0.24856250       0.11591281 </v>
    <v>       0.50256900       0.25113087       0.62980147 </v>
    <v>       0.49787712       0.75663124       0.12265545 </v>
    <v>       0.49958906       0.75039957       0.62349803 </v>
    <v>       0.97869733       0.24995650       0.38320553 </v>
    <v>       0.99685315       0.24975917       0.87009728 </v>
    <v>       0.00147683       0.74881057       0.37783380 </v>
    <v>       0.99918418       0.74491706       0.87286978 </v>
    <v>       0.50950719       0.24574287       0.38581653 </v>
    <v>       0.51120384       0.25370628       0.86942992 </v>
    <v>       0.49639947       0.75084425       0.37741648 </v>
    <v>       0.50317435       0.74944693       0.87152596 </v>
    <v>       0.24941118       0.98290612       0.12538503 </v>
    <v>       0.24940635       0.99539084       0.62518058 </v>
    <v>       0.25166848       0.51682049       0.12218026 </v>
    <v>       0.25126173       0.50336932       0.62567080 </v>
    <v>       0.74811990       0.00018924       0.12163858 </v>
    <v>       0.75038268       0.99958601       0.62868256 </v>
    <v>       0.75097823       0.49769292       0.12432122 </v>
    <v>       0.74972086       0.49985892       0.62668714 </v>
    <v>       0.24901217       0.98617565       0.38201165 </v>
    <v>       0.25301333       0.99286643       0.86884911 </v>
    <v>       0.25179456       0.51533282       0.38160243 </v>
    <v>       0.25305127       0.50734630       0.86882960 </v>
    <v>       0.75171431       0.00179247       0.37924653 </v>
    <v>       0.74867303       0.00196621       0.87195830 </v>
    <v>       0.74974050       0.50061311       0.37747761 </v>
    <v>       0.75081340       0.49877734       0.87141490 </v>
    <v>       0.00143147       0.99806586       0.50184263 </v>
    <v>       0.99698776       0.50386509       0.24954178 </v>
    <v>       0.49527310       0.00003040       0.00170450 </v>
    <v>       0.49883839       0.99831296       0.50032218 </v>
    <v>       0.49842952       0.50004448       0.49850374 </v>
    <v>       0.25180163       0.24905131       0.50295710 </v>
    <v>       0.50329842       0.50145879       0.74929233 </v>
    <v>       0.75191958       0.24981475       0.99663338 </v>
    <v>       0.74920821       0.24977720       0.50509619 </v>
    <v>       0.24863810       0.75053836       0.99774720 </v>
    <v>       0.24981422       0.24890780       0.74903205 </v>
    <v>       0.74231766       0.25182290       0.25107116 </v>
    <v>       0.25170812       0.75027789       0.25212602 </v>
    <v>       0.49982432       0.50170887       0.00137349 </v>
    <v>       0.00090947       0.49657150       0.00045505 </v>
    <v>       0.75156859       0.75179777       0.24971803 </v>
    <v>       0.75052292       0.75066233       0.50092813 </v>
    <v>       0.99856935       0.99720534       0.24861394 </v>
    <v>       0.99888465       0.00009435       0.75299169 </v>
    <v>       0.99899896       0.49757857       0.74921842 </v>
    <v>       0.25015906       0.74978684       0.74764576 </v>
    <v>       0.50221594       0.00047542       0.74953382 </v>
    <v>       0.74892712       0.74658055       0.99894021 </v>
    <v>       0.00262819       0.49989652       0.49992027 </v>
    <v>       0.51438978       0.99235710       0.25234129 </v>
    <v>       0.75142673       0.24977089       0.74995669 </v>
    <v>       0.20710445       0.25709208       0.27436166 </v>
    <v>       0.24972638       0.74980348       0.50204380 </v>
    <v>       0.98715520       0.98955363       0.99754929 </v>
    <v>       0.74961676       0.75000480       0.75082964 </v>
    <v>       0.51067997       0.51626826       0.24897825 </v>
    <v>       0.25765127       0.26322412       0.98585219 </v>
    <v>       0.13371010       0.13823771       0.22425163 </v>
    <v>       0.11465225       0.13567766       0.73788911 </v>
    <v>       0.10882829       0.64121074       0.24548835 </v>
    <v>       0.11417540       0.63482049       0.74641163 </v>
    <v>       0.59554820       0.15079541       0.24745554 </v>
    <v>       0.61271974       0.13470558       0.74728027 </v>
    <v>       0.60948347       0.65175748       0.24284130 </v>
    <v>       0.61205801       0.63534129       0.74044158 </v>
    <v>       0.63465384       0.38724589       0.75363321 </v>
    <v>       0.38562275       0.36223989       0.75997291 </v>
    <v>       0.24883304       0.75410427       0.12463281 </v>
    <v>       0.88730539       0.63455410       0.00362376 </v>
    <v>       0.89303577       0.35959191       0.25402806 </v>
    <v>       0.88874050       0.36413559       0.75434588 </v>
    <v>       0.38442525       0.87090494       0.25237503 </v>
    <v>       0.88788012       0.86569705       0.76210650 </v>
    <v>       0.13590493       0.61072556       0.50419876 </v>
    <v>       0.36332159       0.11421472       0.73781161 </v>
    <v>       0.35973404       0.61102136       0.24843476 </v>
    <v>       0.36300484       0.61283897       0.74689993 </v>
    <v>       0.86073418       0.11104858       0.24402553 </v>
    <v>       0.86593914       0.11206431       0.74925362 </v>
    <v>       0.85896164       0.60901399       0.24457238 </v>
    <v>       0.86722765       0.61217279       0.74601526 </v>
    <v>       0.11076786       0.34195239       0.00995701 </v>
    <v>       0.13881341       0.38585891       0.75631028 </v>
    <v>       0.13924581       0.89096723       0.25332959 </v>
    <v>       0.13632347       0.88496555       0.75341194 </v>
    <v>       0.89721398       0.86048764       0.25045097 </v>
    <v>       0.63248172       0.61526241       0.01567797 </v>
    <v>       0.65204574       0.89661599       0.25469092 </v>
    <v>       0.63365725       0.88758073       0.76224843 </v>
    <v>       0.36221235       0.39092565       0.99170241 </v>
    <v>       0.36376087       0.38280667       0.49022922 </v>
    <v>       0.36263234       0.88566145       0.99675450 </v>
    <v>       0.36636698       0.88628511       0.49808059 </v>
    <v>       0.86298001       0.38651094       0.99726426 </v>
    <v>       0.86571318       0.38428304       0.49376560 </v>
    <v>       0.85767191       0.88482432       0.99214782 </v>
    <v>       0.74224458       0.73140010       0.87858288 </v>
    <v>       0.11271585       0.86525268       0.49491275 </v>
    <v>       0.13945551       0.11336345       0.50471286 </v>
    <v>       0.13714022       0.60967506       0.00249704 </v>
    <v>       0.86591430       0.88635911       0.49045133 </v>
    <v>       0.62489780       0.12119866       0.00511002 </v>
    <v>       0.38511698       0.86464945       0.75675092 </v>
    <v>       0.63658170       0.61267842       0.50195388 </v>
    <v>       0.15698397       0.39902972       0.24181382 </v>
    <v>       0.11740061       0.35954906       0.48358430 </v>
    <v>       0.11655754       0.86807469       0.99767051 </v>
    <v>       0.64055334       0.39338346       0.25280251 </v>
    <v>       0.61412431       0.36734105       0.99692249 </v>
    <v>       0.60940988       0.86886859       0.99716679 </v>
    <v>       0.61524555       0.86306208       0.49057396 </v>
    <v>       0.34826597       0.13613707       0.02850508 </v>
    <v>       0.38690501       0.63811312       0.00600077 </v>
    <v>       0.38751105       0.63351202       0.50097761 </v>
    <v>       0.88569844       0.13659369       0.00256833 </v>
    <v>       0.88680928       0.13535104       0.50432978 </v>
    <v>       0.74901927       0.24089954       0.37469333 </v>
    <v>       0.49360427       0.48768078       0.62384989 </v>
    <v>       0.01204053       0.00595700       0.12072428 </v>
    <v>       0.99600609       0.98722276       0.62465945 </v>
    <v>       0.99772013       0.49440459       0.12474459 </v>
    <v>       0.00513433       0.48371777       0.62337529 </v>
    <v>       0.49394383       0.99951180       0.12811487 </v>
    <v>       0.50828670       0.98401169       0.62582139 </v>
    <v>       0.38937356       0.13662001       0.51312011 </v>
    <v>       0.00609791       0.01861172       0.37086596 </v>
    <v>       0.01733238       0.01968691       0.87836697 </v>
    <v>       0.00209290       0.50792358       0.37237770 </v>
    <v>       0.00508689       0.50118039       0.87742982 </v>
    <v>       0.49236390       0.01317118       0.37459843 </v>
    <v>       0.48632311       0.02198728       0.87940063 </v>
    <v>       0.49606996       0.49786908       0.37139017 </v>
    <v>       0.50491396       0.51463603       0.87682726 </v>
    <v>       0.28466120       0.21604455       0.36703392 </v>
    <v>       0.23980895       0.22331901       0.87293997 </v>
    <v>       0.24906630       0.74484752       0.37437352 </v>
    <v>       0.24917171       0.74043278       0.87534885 </v>
    <v>       0.61564760       0.36382775       0.49830354 </v>
    <v>       0.74794196       0.24327201       0.87624950 </v>
    <v>       0.75518438       0.74004503       0.37286575 </v>
    <v>       0.63758397       0.11297798       0.50340474 </v>
    <v>       0.48315143       0.47549134       0.12976284 </v>
    <v>       0.24773120       0.26983817       0.62263733 </v>
    <v>       0.88740270       0.63397697       0.50440623 </v>
    <v>       0.25152995       0.75714523       0.62620344 </v>
    <v>       0.74783047       0.25710102       0.12523005 </v>
    <v>       0.75211867       0.25792560       0.62512176 </v>
    <v>       0.75502389       0.76363061       0.12495872 </v>
    <v>       0.75198212       0.76440978       0.62300455 </v>
   </varray>
  </structure>
  <varray name="forces" >
   <v>      -0.02747732      -0.01699953      -0.02852043 </v>
   <v>       0.00315421       0.00156490      -0.00047467 </v>
   <v>      -0.01214239       0.00707977      -0.00051431 </v>
   <v>       0.02065052      -0.00904589       0.01909820 </v>
   <v>      -0.00550695       0.01631146       0.01238944 </v>
   <v>      -0.00780416       0.00055447      -0.01832266 </v>
   <v>       0.02162196      -0.01735010       0.00245207 </v>
   <v>      -0.00042975      -0.01455658       0.00483556 </v>
   <v>       0.02106856      -0.00391654       0.01778239 </v>
   <v>      -0.00083362       0.01163339      -0.00200714 </v>
   <v>       0.01419588       0.01304904       0.01002498 </v>
   <v>       0.00552941       0.00647678      -0.01811912 </v>
   <v>       0.01108728      -0.00064913      -0.00605558 </v>
   <v>      -0.02112308       0.00599207      -0.01140063 </v>
   <v>       0.00572625      -0.01171278       0.00614925 </v>
   <v>      -0.01362166      -0.01474068      -0.01468886 </v>
   <v>       0.00708855      -0.04054327      -0.00980849 </v>
   <v>       0.00100435       0.01107560      -0.00743816 </v>
   <v>       0.02582862       0.01076118      -0.02529984 </v>
   <v>      -0.01080990      -0.00239355      -0.00314228 </v>
   <v>       0.02825648      -0.00288952       0.02246187 </v>
   <v>      -0.00404339       0.00688277       0.00913967 </v>
   <v>      -0.00111392       0.00359959      -0.00633867 </v>
   <v>      -0.00728732       0.01450269       0.01508545 </v>
   <v>       0.01619483       0.02474060       0.01324362 </v>
   <v>      -0.01952765      -0.00952326      -0.02090247 </v>
   <v>       0.00626505      -0.01938938       0.01825458 </v>
   <v>      -0.00689183       0.00400661      -0.01215443 </v>
   <v>       0.00039021       0.00077283      -0.00556901 </v>
   <v>      -0.00663217       0.00796770      -0.01503177 </v>
   <v>      -0.00716210      -0.01372021       0.01113249 </v>
   <v>      -0.00035062      -0.00803748       0.01037977 </v>
   <v>       0.05145447      -0.00708125       0.01841998 </v>
   <v>      -0.03481699       0.02456972      -0.00296993 </v>
   <v>      -0.00564399      -0.02837309       0.02930556 </v>
   <v>      -0.03382878       0.01830758       0.00638537 </v>
   <v>      -0.01555467      -0.02146177       0.00288833 </v>
   <v>      -0.01695225      -0.03716530      -0.01060333 </v>
   <v>      -0.00323960      -0.00494654      -0.01005082 </v>
   <v>      -0.00485839       0.02152019       0.01776024 </v>
   <v>      -0.03049443      -0.00026469       0.02420548 </v>
   <v>      -0.00198600      -0.01268651      -0.01003975 </v>
   <v>      -0.01354290      -0.00732517      -0.01297811 </v>
   <v>      -0.00913891      -0.00928165      -0.01417445 </v>
   <v>       0.00777332       0.00056029       0.00322097 </v>
   <v>       0.01482100       0.00026843       0.00006861 </v>
   <v>      -0.01473088       0.00011922      -0.03200983 </v>
   <v>       0.01526826       0.00458908      -0.04859542 </v>
   <v>       0.01364087      -0.00953898       0.00945997 </v>
   <v>      -0.00696927      -0.00434901       0.00360499 </v>
   <v>       0.04535569      -0.01726058      -0.01943001 </v>
   <v>       0.01944671       0.02686886       0.00536048 </v>
   <v>      -0.02894209       0.01014299      -0.03930431 </v>
   <v>      -0.00703560       0.00103568      -0.03498235 </v>
   <v>       0.00178339      -0.02808826       0.05723303 </v>
   <v>       0.02099193      -0.00002507       0.04030483 </v>
   <v>       0.00336899       0.00728755       0.00866373 </v>
   <v>       0.00650854       0.00464241      -0.01249439 </v>
   <v>       0.16128736      -0.10547010       0.18229869 </v>
   <v>      -0.00505923       0.01182647       0.02874128 </v>
   <v>      -0.00374144      -0.02154484      -0.00590616 </v>
   <v>       0.01105041       0.00051105      -0.01008501 </v>
   <v>       0.00615863      -0.01146257      -0.00769819 </v>
   <v>       0.01190472       0.04187346      -0.00502172 </v>
   <v>      -0.01331181      -0.02881179      -0.01805904 </v>
   <v>       0.03594424       0.02445685       0.00373425 </v>
   <v>      -0.00453178      -0.03672076       0.00710809 </v>
   <v>       0.01419733      -0.00875717       0.02223032 </v>
[...]
       <r>   -16.2731     0.0000    32.0000 </r>
       <r>   -16.1208     0.0000    32.0000 </r>
       <r>   -15.9684     0.0000    32.0000 </r>
       <r>   -15.8161     0.0000    32.0000 </r>
       <r>   -15.6637     0.0000    32.0000 </r>
       <r>   -15.5114     0.0003    32.0000 </r>
       <r>   -15.3590     4.2003    32.6400 </r>
       <r>   -15.2067     2.7596    33.0604 </r>
       <r>   -15.0543    18.3719    35.8595 </r>
       <r>   -14.9019    45.4757    42.7879 </r>
       <r>   -14.7496    52.4740    50.7826 </r>
       <r>   -14.5972    36.0637    56.2770 </r>
       <r>   -14.4449    30.9955    60.9993 </r>
       <r>   -14.2925    33.2919    66.0715 </r>
       <r>   -14.1402    83.4927    78.7920 </r>
       <r>   -13.9878   118.4380    96.8366 </r>
       <r>   -13.8355   113.3340   114.1036 </r>
       <r>   -13.6831    56.6823   122.7394 </r>
       <r>   -13.5308     8.2742   124.0000 </r>
       <r>   -13.3784     0.0001   124.0000 </r>
       <r>   -13.2260     0.0000   124.0000 </r>
       <r>   -13.0737     0.0000   124.0000 </r>
       <r>   -12.9213     0.0000   124.0000 </r>
       <r>   -12.7690     0.0211   124.0032 </r>
       <r>   -12.6166    21.6330   127.2991 </r>
       <r>   -12.4643   113.6403   144.6127 </r>
       <r>   -12.3119   172.4883   170.8922 </r>
       <r>   -12.1596   128.1094   190.4102 </r>
       <r>   -12.0072   127.0673   209.7695 </r>
       <r>   -11.8549    65.1719   219.6988 </r>
       <r>   -11.7025     1.9771   220.0000 </r>
       <r>   -11.5501     0.0000   220.0000 </r>
       <r>   -11.3978     0.0000   220.0000 </r>
       <r>   -11.2454     0.0000   220.0000 </r>
       <r>   -11.0931     0.0000   220.0000 </r>
       <r>   -10.9407     0.0000   220.0000 </r>
       <r>   -10.7884     0.0000   220.0000 </r>
       <r>   -10.6360     0.0000   220.0000 </r>
       <r>   -10.4837     0.0000   220.0000 </r>
       <r>   -10.3313     0.0000   220.0000 </r>
       <r>   -10.1790     0.0000   220.0000 </r>
       <r>   -10.0266     0.0000   220.0000 </r>
       <r>    -9.8742     0.0000   220.0000 </r>
       <r>    -9.7219     0.0000   220.0000 </r>
       <r>    -9.5695     0.0000   220.0000 </r>
       <r>    -9.4172     0.0000   220.0000 </r>
       <r>    -9.2648     0.0000   220.0000 </r>
       <r>    -9.1125     0.0000   220.0000 </r>
       <r>    -8.9601     0.0000   220.0000 </r>
       <r>    -8.8078     0.0000   220.0000 </r>
       <r>    -8.6554     0.0000   220.0000 </r>
       <r>    -8.5030     0.0000   220.0000 </r>
       <r>    -8.3507     0.0000   220.0000 </r>
       <r>    -8.1983     0.0000   220.0000 </r>
       <r>    -8.0460     0.0000   220.0000 </r>
       <r>    -7.8936     0.0000   220.0000 </r>
       <r>    -7.7413     0.0000   220.0000 </r>
       <r>    -7.5889     0.0000   220.0000 </r>
       <r>    -7.4366     0.0000   220.0000 </r>
       <r>    -7.2842     0.0000   220.0000 </r>
       <r>    -7.1319     0.0000   220.0000 </r>
       <r>    -6.9795     0.0000   220.0000 </r>
       <r>    -6.8271     0.0000   220.0000 </r>
       <r>    -6.6748     0.0000   220.0000 </r>
       <r>    -6.5224     0.0000   220.0000 </r>
       <r>    -6.3701     0.0000   220.0000 </r>
       <r>    -6.2177     0.0000   220.0000 </r>
       <r>    -6.0654     0.0000   220.0000 </r>
       <r>    -5.9130     0.0000   220.0000 </r>
       <r>    -5.7607     0.0000   220.0000 </r>
       <r>    -5.6083     0.0000   220.0000 </r>
       <r>    -5.4560     0.0000   220.0000 </r>
       <r>    -5.3036     0.0000   220.0000 </r>
       <r>    -5.1512     0.0000   220.0000 </r>
       <r>    -4.9989     0.0000   220.0000 </r>
       <r>    -4.8465     0.0000   220.0000 </r>
       <r>    -4.6942     0.0000   220.0000 </r>
       <r>    -4.5418     0.0000   220.0000 </r>
       <r>    -4.3895     0.0000   220.0000 </r>
       <r>    -4.2371     0.0000   220.0000 </r>
       <r>    -4.0848     0.0000   220.0000 </r>
       <r>    -3.9324     0.0000   220.0000 </r>
       <r>    -3.7801     0.0000   220.0000 </r>
       <r>    -3.6277     0.0000   220.0000 </r>
       <r>    -3.4753     0.0000   220.0000 </r>
       <r>    -3.3230     0.0000   220.0000 </r>
       <r>    -3.1706     0.0000   220.0000 </r>
       <r>    -3.0183     0.0000   220.0000 </r>
       <r>    -2.8659     0.0000   220.0000 </r>
       <r>    -2.7136     0.0001   220.0000 </r>
       <r>    -2.5612     3.7073   220.5648 </r>
       <r>    -2.4089     2.9849   221.0196 </r>
       <r>    -2.2565    10.5272   222.6235 </r>
       <r>    -2.1042    25.2382   226.4686 </r>
       <r>    -1.9518    24.7682   230.2422 </r>
       <r>    -1.7994    37.1679   235.9049 </r>
       <r>    -1.6471    52.9476   243.9717 </r>
       <r>    -1.4947    54.2080   252.2305 </r>
       <r>    -1.3424    60.6865   261.4764 </r>
       <r>    -1.1900    67.4048   271.7459 </r>
       <r>    -1.0377    73.0640   282.8775 </r>
       <r>    -0.8853    74.4879   294.2261 </r>
       <r>    -0.7330    84.3287   307.0740 </r>
       <r>    -0.5806   101.4387   322.5286 </r>
       <r>    -0.4282   112.2624   339.6323 </r>
       <r>    -0.2759    79.1702   351.6943 </r>
       <r>    -0.1235    48.6973   359.1136 </r>
       <r>     0.0288    50.6067   366.8237 </r>
       <r>     0.1812    50.8433   374.5699 </r>
       <r>     0.3335    48.4200   381.9470 </r>
       <r>     0.4859    50.8798   389.6987 </r>
       <r>     0.6382    55.5661   398.1645 </r>
       <r>     0.7906    47.2002   405.3557 </r>
       <r>     0.9429    50.7220   413.0834 </r>
       <r>     1.0953    59.2448   422.1096 </r>
       <r>     1.2477    82.5877   434.6922 </r>
       <r>     1.4000    92.6587   448.8092 </r>
       <r>     1.5524    93.5138   463.0565 </r>
       <r>     1.7047    72.7513   474.1405 </r>
       <r>     1.8571    67.4836   484.4220 </r>
       <r>     2.0094    38.8787   490.3453 </r>
       <r>     2.1618    28.5871   494.7007 </r>
       <r>     2.3141    14.7947   496.9547 </r>
       <r>     2.4665     0.2971   497.0000 </r>
       <r>     2.6188     0.0000   497.0000 </r>
       <r>     2.7712     0.0000   497.0000 </r>
       <r>     2.9236     0.0000   497.0000 </r>
       <r>     3.0759     0.0000   497.0000 </r>
       <r>     3.2283     0.0000   497.0000 </r>
       <r>     3.3806     0.0000   497.0000 </r>
       <r>     3.5330     0.0000   497.0000 </r>
       <r>     3.6853     0.0000   497.0000 </r>
       <r>     3.8377     0.0000   497.0000 </r>
       <r>     3.9900     0.0000   497.0000 </r>
       <r>     4.1424     0.0000   497.0000 </r>
       <r>     4.2947     0.0000   497.0000 </r>
       <r>     4.4471     3.2363   497.4931 </r>
       <r>     4.5995    30.3573   502.1181 </r>
       <r>     4.7518    33.6008   507.2374 </r>
       <r>     4.9042    33.2222   512.2989 </r>
       <r>     5.0565    39.5511   518.3247 </r>
       <r>     5.2089    48.2985   525.6832 </r>
       <r>     5.3612    59.0402   534.6783 </r>
       <r>     5.5136    72.0645   545.6576 </r>
       <r>     5.6659    67.4912   555.9402 </r>
       <r>     5.8183    78.8156   567.9482 </r>
       <r>     5.9706    88.2378   581.3916 </r>
       <r>     6.1230    92.0819   595.4207 </r>
       <r>     6.2754    61.3298   604.7646 </r>
       <r>     6.4277    37.4668   610.4729 </r>
       <r>     6.5801    18.5924   613.3055 </r>
       <r>     6.7324    25.4271   617.1794 </r>
       <r>     6.8848    22.5942   620.6218 </r>
       <r>     7.0371    19.6732   623.6191 </r>
       <r>     7.1895    20.2813   626.7090 </r>
       <r>     7.3418    15.6568   629.0944 </r>
       <r>     7.4942    13.0387   631.0809 </r>
       <r>     7.6466    18.5428   633.9060 </r>
       <r>     7.7989    15.3988   636.2521 </r>
       <r>     7.9513    21.0338   639.4567 </r>
       <r>     8.1036    24.5561   643.1979 </r>
       <r>     8.2560    28.2831   647.5070 </r>
       <r>     8.4083    25.0077   651.3170 </r>
       <r>     8.5607    23.3099   654.8684 </r>
       <r>     8.7130    25.2858   658.7208 </r>
       <r>     8.8654    24.8043   662.4999 </r>
       <r>     9.0177    33.8848   667.6624 </r>
       <r>     9.1701    39.5462   673.6874 </r>
       <r>     9.3225    35.0142   679.0220 </r>
       <r>     9.4748    39.8730   685.0968 </r>
       <r>     9.6272    42.5718   691.5828 </r>
       <r>     9.7795    55.8326   700.0892 </r>
       <r>     9.9319    65.9697   710.1400 </r>
       <r>    10.0842    67.1948   720.3774 </r>
       <r>    10.2366    67.2748   730.6271 </r>
       <r>    10.3889    57.2714   739.3526 </r>
       <r>    10.5413    56.8024   748.0068 </r>
       <r>    10.6936    55.8383   756.5140 </r>
       <r>    10.8460    54.3572   764.7956 </r>
       <r>    10.9984    21.0188   767.9979 </r>
       <r>    11.1507     0.0140   768.0000 </r>
       <r>    11.3031     0.0000   768.0000 </r>
       <r>    11.4554     0.0000   768.0000 </r>
       <r>    11.6078     0.0000   768.0000 </r>
       <r>    11.7601     0.0000   768.0000 </r>
       <r>    11.9125     0.0000   768.0000 </r>
       <r>    12.0648     0.0000   768.0000 </r>
       <r>    12.2172     0.0000   768.0000 </r>
       <r>    12.3695     0.0000   768.0000 </r>
       <r>    12.5219     0.0000   768.0000 </r>
       <r>    12.6743     0.0000   768.0000 </r>
       <r>    12.8266     0.0000   768.0000 </r>
       <r>    12.9790     0.0000   768.0000 </r>
      </set>
     </set>
    </array>
   </total>
  </dos>
 </calculation>
 <structure name="finalpos" >
  <crystal>
   <varray name="basis" >
    <v>      11.22285492       0.01174606       0.02752726 </v>
    <v>       0.01179259      11.25580507      -0.00906023 </v>
    <v>       0.03942804      -0.01293856      15.90935486 </v>
   </varray>
   <i name="volume">   2009.69003240 </i>
   <varray name="rec_basis" >
    <v>       0.08910453      -0.00009353      -0.00022090 </v>
    <v>      -0.00009316       0.08884320       0.00007248 </v>
    <v>      -0.00015423       0.00005076       0.06285652 </v>
   </varray>
  </crystal>
  <varray name="positions" >
   <v>       0.98176218       0.24951281       0.12598421 </v>
   <v>       0.99736995       0.24895430       0.62709455 </v>
   <v>       0.00084650       0.74967680       0.12376934 </v>
   <v>       0.99928931       0.75048918       0.62741396 </v>
   <v>       0.51514809       0.24845398       0.11619758 </v>
   <v>       0.50235576       0.25065858       0.62893021 </v>
   <v>       0.49825529       0.75557733       0.12261055 </v>
   <v>       0.50026612       0.75017898       0.62382764 </v>
   <v>       0.97884897       0.25043373       0.38398746 </v>
   <v>       0.99630755       0.25031874       0.87029532 </v>
   <v>       0.00218870       0.74880901       0.37841864 </v>
   <v>       0.99846093       0.74519588       0.87279954 </v>
   <v>       0.50981706       0.24644729       0.38502353 </v>
   <v>       0.51023862       0.25375010       0.86870845 </v>
   <v>       0.49760724       0.74989039       0.37744742 </v>
   <v>       0.50261288       0.74895480       0.87111311 </v>
   <v>       0.24941050       0.98207099       0.12500353 </v>
   <v>       0.24961863       0.99613270       0.62511606 </v>
   <v>       0.25189056       0.51702351       0.12201590 </v>
   <v>       0.25136810       0.50348741       0.62576894 </v>
   <v>       0.74925993       0.00019058       0.12227191 </v>
   <v>       0.75034685       0.00014538       0.62860771 </v>
   <v>       0.75121532       0.49708169       0.12438107 </v>
   <v>       0.74962783       0.50055753       0.62725251 </v>
   <v>       0.24987417       0.98686463       0.38187972 </v>
   <v>       0.25267543       0.99319152       0.86900371 </v>
   <v>       0.25179150       0.51499508       0.38195758 </v>
   <v>       0.25224214       0.50742076       0.86826731 </v>
   <v>       0.75159063       0.00226051       0.37903335 </v>
   <v>       0.74769859       0.00215863       0.87122631 </v>
   <v>       0.74935571       0.50023627       0.37757726 </v>
   <v>       0.75050526       0.49812125       0.87147983 </v>
   <v>       0.00171300       0.99819054       0.50150601 </v>
   <v>       0.99721661       0.50407588       0.24960626 </v>
   <v>       0.49583735      -0.00068394       0.00193717 </v>
   <v>       0.49874776       0.99848541       0.49995779 </v>
   <v>       0.49833835       0.50032813       0.49874802 </v>
   <v>       0.25140650       0.24936893       0.50316511 </v>
   <v>       0.50349230       0.50114580       0.74921362 </v>
   <v>       0.75202724       0.24906728       0.99660753 </v>
   <v>       0.74892364       0.25019817       0.50508090 </v>
   <v>       0.24867426       0.75044467       0.99770646 </v>
   <v>       0.24958845       0.24890189       0.74903830 </v>
   <v>       0.74299434       0.25147882       0.25108779 </v>
   <v>       0.25205419       0.75011695       0.25227571 </v>
   <v>       0.50005127       0.50150219       0.00129900 </v>
   <v>       0.00087749       0.49625152       0.00069887 </v>
   <v>       0.75211042       0.75122907       0.24975230 </v>
   <v>       0.75083664       0.75085837       0.50078646 </v>
   <v>       0.99887670       0.99724628       0.24906262 </v>
   <v>       0.99903383       0.00032678       0.75285513 </v>
   <v>       0.99887202       0.49791063       0.74946582 </v>
   <v>       0.25004470       0.75008384       0.74767515 </v>
   <v>       0.50201862       0.00037510       0.74946651 </v>
   <v>       0.74902603       0.74625345       0.99907774 </v>
   <v>       0.00237719       0.50034961       0.50025025 </v>
   <v>       0.51413445       0.99164814       0.25233445 </v>
   <v>       0.75129149       0.24981060       0.74985171 </v>
   <v>       0.20677235       0.25685128       0.27351340 </v>
   <v>       0.25005269       0.75011362       0.50206948 </v>
   <v>       0.98680430       0.98894174       0.99720481 </v>
   <v>       0.74956658       0.75012407       0.75096887 </v>
   <v>       0.51050156       0.51550801       0.24862098 </v>
   <v>       0.25790961       0.26349268       0.98598170 </v>
   <v>       0.13529401       0.13657060       0.22318662 </v>
   <v>       0.11639568       0.13425088       0.73708597 </v>
   <v>       0.10959498       0.64040053       0.24526214 </v>
   <v>       0.11615359       0.63318931       0.74661380 </v>
   <v>       0.59836487       0.14786714       0.24673474 </v>
   <v>       0.61441717       0.13289646       0.74660968 </v>
   <v>       0.61219346       0.64846001       0.24078533 </v>
   <v>       0.61448955       0.63324083       0.73958372 </v>
   <v>       0.63278743       0.38511656       0.75431451 </v>
   <v>       0.38352415       0.36450024       0.76002180 </v>
   <v>       0.24988569       0.75401769       0.12461659 </v>
   <v>       0.88660721       0.63340586       0.00431741 </v>
   <v>       0.89159367       0.36074859       0.25449983 </v>
   <v>       0.88613178       0.36663585       0.75508612 </v>
   <v>       0.38337558       0.87140412       0.25297474 </v>
   <v>       0.88568048       0.86791005       0.76291810 </v>
   <v>       0.13469574       0.61221715       0.50421362 </v>
   <v>       0.36499376       0.11604046       0.73825401 </v>
   <v>       0.36073515       0.61159562       0.24812871 </v>
   <v>       0.36541597       0.61513034       0.74715787 </v>
   <v>       0.86243652       0.11261679       0.24449384 </v>
   <v>       0.86798659       0.11440643       0.74817763 </v>
   <v>       0.86072654       0.61022279       0.24353161 </v>
   <v>       0.86906907       0.61461197       0.74638410 </v>
   <v>       0.11138959       0.34186989       0.01036996 </v>
   <v>       0.13651423       0.38384831       0.75570829 </v>
   <v>       0.13814871       0.88944617       0.25343083 </v>
   <v>       0.13464162       0.88391071       0.75355740 </v>
   <v>       0.89580575       0.86182897       0.25355065 </v>
   <v>       0.63222660       0.61565417       0.01737178 </v>
   <v>       0.64992895       0.89368248       0.25606635 </v>
   <v>       0.63143424       0.88534744       0.76226884 </v>
   <v>       0.36268176       0.39079377       0.99101221 </v>
   <v>       0.36395566       0.38273152       0.49046694 </v>
   <v>       0.36334756       0.88532464       0.99635852 </v>
   <v>       0.36775008       0.88531765       0.49765358 </v>
   <v>       0.86390447       0.38519888       0.99652792 </v>
   <v>       0.86586502       0.38425857       0.49372486 </v>
   <v>       0.85863514       0.88327679       0.98919437 </v>
   <v>       0.74119582       0.72962913       0.87865256 </v>
   <v>       0.11441048       0.86700232       0.49426353 </v>
   <v>       0.13770275       0.11540488       0.50459907 </v>
   <v>       0.13660713       0.61026264       0.00290295 </v>
   <v>       0.86735400       0.88530752       0.48857588 </v>
   <v>       0.62540113       0.12072924       0.00589281 </v>
   <v>       0.38335934       0.86648206       0.75707186 </v>
   <v>       0.63519036       0.61422174       0.50298300 </v>
   <v>       0.15587601       0.39909594       0.24154143 </v>
   <v>       0.11737753       0.36111834       0.48458706 </v>
   <v>       0.11778179       0.86940748       0.99791715 </v>
   <v>       0.63748538       0.39040693       0.25298991 </v>
   <v>       0.61498068       0.36738938       0.99674035 </v>
   <v>       0.60984850       0.86865866       0.99722948 </v>
   <v>       0.61686463       0.86507963       0.48932602 </v>
   <v>       0.34779591       0.13620165       0.02864838 </v>
   <v>       0.38685413       0.63784782       0.00532655 </v>
   <v>       0.38655438       0.63284454       0.50176747 </v>
   <v>       0.88587774       0.13581942       0.00317759 </v>
   <v>       0.88501953       0.13443095       0.50449299 </v>
   <v>       0.74880559       0.24082450       0.37492927 </v>
   <v>       0.49372948       0.48694611       0.62396856 </v>
   <v>       0.00884807       0.00259652       0.12127221 </v>
   <v>       0.99587272       0.98640560       0.62423756 </v>
   <v>       0.99761684       0.49259489       0.12484686 </v>
   <v>       0.00434609       0.48449552       0.62365981 </v>
   <v>       0.49343285       0.99849952       0.12814845 </v>
   <v>       0.50748378       0.98385460       0.62564074 </v>
   <v>       0.38720062       0.13543708       0.51244251 </v>
   <v>       0.00795774       0.02077750       0.37087990 </v>
   <v>       0.01791252       0.02106605       0.87830389 </v>
   <v>       0.00166460       0.50864061       0.37251331 </v>
   <v>       0.00608625       0.50103429       0.87762281 </v>
   <v>       0.49136465       0.01508335       0.37428811 </v>
   <v>       0.48723508       0.02235038       0.87952624 </v>
   <v>       0.49588419       0.49966456       0.37151504 </v>
   <v>       0.50652997       0.51470360       0.87688532 </v>
   <v>       0.28343053       0.21896401       0.36654105 </v>
   <v>       0.23975592       0.22401860       0.87281289 </v>
   <v>       0.24956887       0.74410726       0.37448748 </v>
   <v>       0.24822639       0.74070071       0.87535709 </v>
   <v>       0.61587265       0.36506489       0.49770394 </v>
   <v>       0.74779653       0.24142889       0.87616629 </v>
   <v>       0.75417901       0.73644939       0.37297687 </v>
   <v>       0.63550324       0.11500619       0.50386734 </v>
   <v>       0.48205971       0.47491850       0.12943093 </v>
   <v>       0.24857182       0.26967149       0.62292161 </v>
   <v>       0.88636736       0.63367320       0.50534211 </v>
   <v>       0.25121420       0.75778199       0.62630173 </v>
   <v>       0.74886730       0.25746683       0.12521240 </v>
   <v>       0.75170826       0.25929683       0.62507914 </v>
   <v>       0.75747512       0.76672189       0.12500243 </v>
   <v>       0.75209853       0.76623229       0.62288496 </v>
  </varray>
 </structure>
</modeling>
