       N       E                     dE             d eps       ncg     rms          rms(c)
DAV:   1    -0.115227215233E+04   -0.11523E+04   -0.22878E-02 13112   0.347E-01    0.221E-02
RMM:   2    -0.115227215218E+04    0.15275E-06   -0.16821E-05  6802   0.661E-03    0.369E-02
RMM:   3    -0.115227215250E+04   -0.32135E-06   -0.56884E-06  5995   0.443E-03    0.341E-03
RMM:   4    -0.115227215281E+04   -0.31129E-06   -0.25908E-06  3447   0.238E-03    0.260E-03
RMM:   5    -0.115227215301E+04   -0.20440E-06   -0.15182E-06  3141   0.251E-03    0.320E-03
RMM:   6    -0.115227215317E+04   -0.16097E-06   -0.75135E-07  2109   0.189E-03    0.137E-03
RMM:   7    -0.115227215326E+04   -0.81447E-07   -0.43160E-07  1942   0.198E-03    0.585E-04
RMM:   8    -0.115227215328E+04   -0.22817E-07   -0.15410E-07  1498   0.179E-03
   1 F= -.11522722E+04 E0= -.11522722E+04  d E =-.115227E+04  mag=    20.0000
       N       E                     dE             d eps       ncg     rms          rms(c)
DAV:   1    -0.115227226113E+04   -0.10788E-03   -0.45648E-01 12416   0.793E-01    0.280E-01
RMM:   2    -0.115227326446E+04   -0.10033E-02   -0.14425E-02 12309   0.154E-01    0.256E-01
RMM:   3    -0.115227317018E+04    0.94280E-04   -0.64669E-04 11383   0.449E-02    0.165E-01
RMM:   4    -0.115227305750E+04    0.11267E-03   -0.47719E-04 10570   0.238E-02    0.781E-02
RMM:   5    -0.115227302690E+04    0.30602E-04   -0.82893E-05  7972   0.135E-02    0.464E-02
RMM:   6    -0.115227302721E+04   -0.30892E-06   -0.20491E-05  7069   0.694E-03    0.178E-02
RMM:   7    -0.115227302685E+04    0.35929E-06   -0.92648E-06  6333   0.457E-03    0.145E-02
RMM:   8    -0.115227302673E+04    0.12619E-06   -0.51923E-06  5907   0.346E-03
   2 F= -.11522730E+04 E0= -.11522730E+04  d E =-.873447E-03  mag=    20.0000
       N       E                     dE             d eps       ncg     rms          rms(c)
DAV:   1    -0.115227311811E+04   -0.91255E-04   -0.34711E-02 12704   0.219E-01    0.774E-02
RMM:   2    -0.115227319415E+04   -0.76044E-04   -0.10811E-03 12071   0.426E-02    0.704E-02
RMM:   3    -0.115227318621E+04    0.79368E-05   -0.38921E-05  6729   0.127E-02    0.464E-02
RMM:   4    -0.115227317811E+04    0.81068E-05   -0.35289E-05  6582   0.762E-03    0.311E-02
RMM:   5    -0.115227317666E+04    0.14480E-05   -0.84183E-06  5547   0.489E-03    0.199E-02
RMM:   6    -0.115227317679E+04   -0.13037E-06   -0.22552E-06  3818   0.231E-03    0.502E-03
RMM:   7    -0.115227317693E+04   -0.14575E-06   -0.42321E-07  2447   0.210E-03    0.347E-03
RMM:   8    -0.115227317710E+04   -0.16321E-06   -0.18264E-07  1797   0.180E-03
   3 F= -.11522732E+04 E0= -.11522732E+04  d E =-.102382E-02  mag=    20.0000
       N       E                     dE             d eps       ncg     rms          rms(c)
DAV:   1    -0.115227315084E+04    0.26095E-04   -0.52506E-01 12640   0.858E-01    0.202E-01
RMM:   2    -0.115227437212E+04   -0.12213E-02   -0.13327E-02 12334   0.147E-01    0.141E-01
RMM:   3    -0.115227437064E+04    0.14887E-05   -0.62735E-04 10745   0.494E-02    0.888E-02
RMM:   4    -0.115227432976E+04    0.40878E-04   -0.18380E-04  7452   0.168E-02    0.546E-02
RMM:   5    -0.115227432825E+04    0.15100E-05   -0.47789E-05  7043   0.106E-02    0.467E-02
RMM:   6    -0.115227433048E+04   -0.22311E-05   -0.21705E-05  6977   0.697E-03    0.127E-02
RMM:   7    -0.115227433176E+04   -0.12835E-05   -0.10713E-05  6562   0.506E-03    0.135E-02
RMM:   8    -0.115227433246E+04   -0.69352E-06   -0.61934E-06  5443   0.391E-03
   4 F= -.11522743E+04 E0= -.11522743E+04  d E =-.115536E-02  mag=    20.0000
       N       E                     dE             d eps       ncg     rms          rms(c)
DAV:   1    -0.115227402308E+04    0.30869E-03   -0.22793E-01 12672   0.565E-01    0.133E-01
RMM:   2    -0.115227456355E+04   -0.54047E-03   -0.58887E-03 12372   0.974E-02    0.942E-02
RMM:   3    -0.115227455783E+04    0.57187E-05   -0.24543E-04  8118   0.314E-02    0.593E-02
RMM:   4    -0.115227454216E+04    0.15673E-04   -0.90980E-05  7093   0.121E-02    0.432E-02
RMM:   5    -0.115227454224E+04   -0.78187E-07   -0.28608E-05  6988   0.861E-03    0.343E-02
RMM:   6    -0.115227454363E+04   -0.13930E-05   -0.16534E-05  6819   0.512E-03    0.832E-03
RMM:   7    -0.115227454445E+04   -0.82090E-06   -0.71270E-06  6196   0.450E-03    0.100E-02
RMM:   8    -0.115227454492E+04   -0.46611E-06   -0.42949E-06  4435   0.286E-03
   5 F= -.11522745E+04 E0= -.11522745E+04  d E =-.136782E-02  mag=    20.0000
       N       E                     dE             d eps       ncg     rms          rms(c)
DAV:   1    -0.115227471029E+04   -0.16584E-03   -0.29242E-01 12640   0.632E-01    0.130E-01
RMM:   2    -0.115227536046E+04   -0.65017E-03   -0.73088E-03 12311   0.107E-01    0.957E-02
RMM:   3    -0.115227534775E+04    0.12708E-04   -0.32535E-04  8551   0.359E-02    0.613E-02
RMM:   4    -0.115227533023E+04    0.17523E-04   -0.10164E-04  7057   0.124E-02    0.360E-02
RMM:   5    -0.115227532948E+04    0.74848E-06   -0.32104E-05  6943   0.825E-03    0.328E-02
RMM:   6    -0.115227533124E+04   -0.17617E-05   -0.14716E-05  6725   0.569E-03    0.881E-03
RMM:   7    -0.115227533232E+04   -0.10788E-05   -0.79663E-06  6105   0.410E-03    0.874E-03
RMM:   8    -0.115227533289E+04   -0.56614E-06   -0.46364E-06  4822   0.341E-03
   6 F= -.11522753E+04 E0= -.11522753E+04  d E =-.787970E-03  mag=    20.0000
