       N       E                     dE             d eps       ncg     rms          rms(c)
DAV:   1    -0.115243849456E+04   -0.11524E+04   -0.20193E-02 13368   0.325E-01    0.147E-02
RMM:   2    -0.115243849522E+04   -0.65479E-06   -0.17084E-05  6684   0.642E-03    0.242E-02
RMM:   3    -0.115243849572E+04   -0.50673E-06   -0.73586E-06  5795   0.456E-03    0.306E-03
RMM:   4    -0.115243849615E+04   -0.42521E-06   -0.46404E-06  4026   0.280E-03    0.234E-03
RMM:   5    -0.115243849635E+04   -0.20632E-06   -0.28521E-06  3716   0.297E-03    0.384E-03
RMM:   6    -0.115243849650E+04   -0.14401E-06   -0.17702E-06  2655   0.213E-03    0.160E-03
RMM:   7    -0.115243849655E+04   -0.51281E-07   -0.10315E-06  2415   0.224E-03    0.997E-04
RMM:   8    -0.115243849661E+04   -0.60041E-07   -0.73014E-07  2110   0.194E-03
   1 F= -.11524385E+04 E0= -.11524385E+04  d E =-.115244E+04  mag=    20.0000
       N       E                     dE             d eps       ncg     rms          rms(c)
DAV:   1    -0.115243920433E+04   -0.70778E-03   -0.56180E-01 12672   0.888E-01    0.354E-01
RMM:   2    -0.115244028914E+04   -0.10848E-02   -0.18737E-02 12296   0.178E-01    0.288E-01
RMM:   3    -0.115244012069E+04    0.16845E-03   -0.95981E-04 12040   0.554E-02    0.169E-01
RMM:   4    -0.115243999022E+04    0.13048E-03   -0.52439E-04 11091   0.258E-02    0.100E-01
RMM:   5    -0.115243995480E+04    0.35422E-04   -0.94012E-05  7643   0.159E-02    0.593E-02
RMM:   6    -0.115243995561E+04   -0.81240E-06   -0.37581E-05  7135   0.818E-03    0.307E-02
RMM:   7    -0.115243995418E+04    0.14287E-05   -0.14377E-05  7010   0.638E-03    0.203E-02
RMM:   8    -0.115243995217E+04    0.20065E-05   -0.10799E-05  6521   0.401E-03
   2 F= -.11524400E+04 E0= -.11524400E+04  d E =-.145556E-02  mag=    20.0000
       N       E                     dE             d eps       ncg     rms          rms(c)
DAV:   1    -0.115243996345E+04   -0.92692E-05   -0.10998E-02 13264   0.124E-01    0.494E-02
RMM:   2    -0.115243998278E+04   -0.19332E-04   -0.33653E-04  8985   0.253E-02    0.442E-02
RMM:   3    -0.115243998161E+04    0.11708E-05   -0.28944E-05  6608   0.105E-02    0.242E-02
RMM:   4    -0.115243997959E+04    0.20195E-05   -0.12312E-05  6431   0.495E-03    0.230E-02
RMM:   5    -0.115243997920E+04    0.39350E-06   -0.32942E-06  5014   0.336E-03    0.962E-03
RMM:   6    -0.115243997907E+04    0.12340E-06   -0.72899E-07  2449   0.197E-03    0.384E-03
RMM:   7    -0.115243997918E+04   -0.10841E-06   -0.23120E-07  1643   0.181E-03    0.222E-03
RMM:   8    -0.115243997921E+04   -0.29075E-07   -0.16568E-07  1308   0.181E-03
   3 F= -.11524400E+04 E0= -.11524400E+04  d E =-.148260E-02  mag=    20.0000
       N       E                     dE             d eps       ncg     rms          rms(c)
DAV:   1    -0.115243967327E+04    0.30591E-03   -0.61455E-01 12576   0.926E-01    0.261E-01
RMM:   2    -0.115244132687E+04   -0.16536E-02   -0.15713E-02 12311   0.164E-01    0.171E-01
RMM:   3    -0.115244138250E+04   -0.55629E-04   -0.78567E-04 11226   0.540E-02    0.995E-02
RMM:   4    -0.115244132440E+04    0.58102E-04   -0.23055E-04  7952   0.182E-02    0.513E-02
RMM:   5    -0.115244132150E+04    0.28962E-05   -0.63904E-05  7099   0.118E-02    0.474E-02
RMM:   6    -0.115244132386E+04   -0.23602E-05   -0.23707E-05  6983   0.776E-03    0.123E-02
RMM:   7    -0.115244132496E+04   -0.10956E-05   -0.11973E-05  6500   0.510E-03    0.116E-02
RMM:   8    -0.115244132567E+04   -0.71079E-06   -0.71702E-06  5968   0.421E-03
   4 F= -.11524413E+04 E0= -.11524413E+04  d E =-.134646E-02  mag=    20.0000
