       N       E                     dE             d eps       ncg     rms          rms(c)
DAV:   1    -0.112041833466E+04   -0.11204E+04   -0.93904E-02 13328   0.706E-01    0.233E-02
RMM:   2    -0.112041833644E+04   -0.17719E-05   -0.35224E-05  7097   0.103E-02    0.313E-02
RMM:   3    -0.112041833716E+04   -0.72843E-06   -0.13139E-05  6920   0.688E-03    0.101E-02
RMM:   4    -0.112041833859E+04   -0.14264E-05   -0.79808E-06  5186   0.363E-03    0.590E-03
RMM:   5    -0.112041833983E+04   -0.12438E-05   -0.47380E-06  4917   0.385E-03    0.904E-03
RMM:   6    -0.112041834043E+04   -0.59836E-06   -0.32630E-06  3839   0.266E-03    0.213E-03
RMM:   7    -0.112041834065E+04   -0.22155E-06   -0.18066E-06  3244   0.269E-03    0.168E-03
RMM:   8    -0.112041834084E+04   -0.18807E-06   -0.11985E-06  2686   0.214E-03
   1 F= -.11204183E+04 E0= -.11204183E+04  d E =-.112042E+04  mag=    40.0000
       N       E                     dE             d eps       ncg     rms          rms(c)
DAV:   1    -0.112042013202E+04   -0.17914E-02   -0.11379E+00 12416   0.128E+00    0.480E-01
RMM:   2    -0.112042210366E+04   -0.19716E-02   -0.36747E-02 12291   0.255E-01    0.432E-01
RMM:   3    -0.112042180492E+04    0.29875E-03   -0.20449E-03 12723   0.820E-02    0.262E-01
RMM:   4    -0.112042156743E+04    0.23749E-03   -0.80920E-04 12028   0.333E-02    0.160E-01
RMM:   5    -0.112042148688E+04    0.80554E-04   -0.17009E-04  8161   0.202E-02    0.753E-02
RMM:   6    -0.112042148915E+04   -0.22746E-05   -0.50306E-05  7217   0.109E-02    0.392E-02
RMM:   7    -0.112042148859E+04    0.55892E-06   -0.21757E-05  7135   0.749E-03    0.245E-02
RMM:   8    -0.112042148715E+04    0.14468E-05   -0.13817E-05  6979   0.540E-03
   2 F= -.11204215E+04 E0= -.11204215E+04  d E =-.314631E-02  mag=    40.0000
       N       E                     dE             d eps       ncg     rms          rms(c)
DAV:   1    -0.112042149219E+04   -0.35952E-05   -0.58840E-03 13568   0.918E-02    0.348E-02
RMM:   2    -0.112042150021E+04   -0.80225E-05   -0.16691E-04  7274   0.189E-02    0.371E-02
RMM:   3    -0.112042150030E+04   -0.88490E-07   -0.17988E-05  6577   0.789E-03    0.196E-02
RMM:   4    -0.112042149923E+04    0.10672E-05   -0.59126E-06  6039   0.398E-03    0.213E-02
RMM:   5    -0.112042149893E+04    0.30432E-06   -0.21741E-06  4636   0.278E-03    0.908E-03
RMM:   6    -0.112042149866E+04    0.26794E-06   -0.71062E-07  2878   0.188E-03    0.338E-03
RMM:   7    -0.112042149877E+04   -0.11172E-06   -0.12804E-07  1712   0.160E-03    0.263E-03
RMM:   8    -0.112042149882E+04   -0.48210E-07   -0.14702E-08  1312   0.154E-03
   3 F= -.11204215E+04 E0= -.11204215E+04  d E =-.315798E-02  mag=    40.0000
       N       E                     dE             d eps       ncg     rms          rms(c)
DAV:   1    -0.112042201608E+04   -0.51731E-03   -0.93599E-01 12432   0.116E+00    0.311E-01
RMM:   2    -0.112042435495E+04   -0.23389E-02   -0.25544E-02 12339   0.211E-01    0.221E-01
RMM:   3    -0.112042437179E+04   -0.16842E-04   -0.13352E-03 12171   0.694E-02    0.140E-01
RMM:   4    -0.112042429130E+04    0.80493E-04   -0.37800E-04  9514   0.229E-02    0.720E-02
RMM:   5    -0.112042428002E+04    0.11275E-04   -0.10617E-04  7272   0.153E-02    0.449E-02
RMM:   6    -0.112042428290E+04   -0.28757E-05   -0.33655E-05  7079   0.101E-02    0.243E-02
RMM:   7    -0.112042428475E+04   -0.18513E-05   -0.18498E-05  6760   0.569E-03    0.108E-02
RMM:   8    -0.112042428588E+04   -0.11322E-05   -0.10495E-05  6555   0.552E-03
   4 F= -.11204243E+04 E0= -.11204243E+04  d E =-.278706E-02  mag=    40.0000
       N       E                     dE             d eps       ncg     rms          rms(c)
DAV:   1    -0.112042292431E+04    0.13604E-02   -0.93271E-01 12368   0.116E+00    0.310E-01
RMM:   2    -0.112042527814E+04   -0.23538E-02   -0.25671E-02 12355   0.212E-01    0.221E-01
RMM:   3    -0.112042529840E+04   -0.20259E-04   -0.13885E-03 12396   0.691E-02    0.141E-01
RMM:   4    -0.112042521764E+04    0.80760E-04   -0.38392E-04  9648   0.228E-02    0.725E-02
RMM:   5    -0.112042520633E+04    0.11307E-04   -0.11057E-04  7286   0.154E-02    0.421E-02
RMM:   6    -0.112042520947E+04   -0.31346E-05   -0.36453E-05  7123   0.105E-02    0.261E-02
RMM:   7    -0.112042521154E+04   -0.20724E-05   -0.20805E-05  6852   0.598E-03    0.109E-02
RMM:   8    -0.112042521283E+04   -0.12918E-05   -0.11999E-05  6649   0.595E-03
   5 F= -.11204252E+04 E0= -.11204252E+04  d E =-.371401E-02  mag=    40.0000
       N       E                     dE             d eps       ncg     rms          rms(c)
DAV:   1    -0.112042480770E+04    0.40384E-03   -0.11455E+00 12672   0.126E+00    0.308E-01
RMM:   2    -0.112042758482E+04   -0.27771E-02   -0.29294E-02 12390   0.222E-01    0.215E-01
RMM:   3    -0.112042761615E+04   -0.31326E-04   -0.15262E-03 12132   0.742E-02    0.132E-01
RMM:   4    -0.112042754183E+04    0.74313E-04   -0.44334E-04  9972   0.236E-02    0.706E-02
RMM:   5    -0.112042752930E+04    0.12533E-04   -0.11100E-04  7237   0.154E-02    0.447E-02
RMM:   6    -0.112042753446E+04   -0.51633E-05   -0.40074E-05  7087   0.102E-02    0.217E-02
RMM:   7    -0.112042753740E+04   -0.29321E-05   -0.23517E-05  6942   0.675E-03    0.128E-02
RMM:   8    -0.112042753941E+04   -0.20120E-05   -0.14638E-05  6803   0.618E-03
   6 F= -.11204275E+04 E0= -.11204275E+04  d E =-.232658E-02  mag=    40.0000
       N       E                     dE             d eps       ncg     rms          rms(c)
DAV:   1    -0.112042533376E+04    0.22036E-02   -0.12924E+00 12672   0.134E+00    0.327E-01
RMM:   2    -0.112042847544E+04   -0.31417E-02   -0.33130E-02 12402   0.236E-01    0.229E-01
RMM:   3    -0.112042851341E+04   -0.37973E-04   -0.17418E-03 12261   0.786E-02    0.140E-01
RMM:   4    -0.112042843015E+04    0.83260E-04   -0.50213E-04 10823   0.251E-02    0.743E-02
RMM:   5    -0.112042841532E+04    0.14834E-04   -0.12831E-04  7309   0.163E-02    0.466E-02
RMM:   6    -0.112042842089E+04   -0.55754E-05   -0.45288E-05  7127   0.109E-02    0.247E-02
RMM:   7    -0.112042842411E+04   -0.32160E-05   -0.26558E-05  7009   0.713E-03    0.138E-02
RMM:   8    -0.112042842631E+04   -0.22043E-05   -0.16561E-05  6861   0.663E-03
   7 F= -.11204284E+04 E0= -.11204284E+04  d E =-.321348E-02  mag=    40.0000
       N       E                     dE             d eps       ncg     rms          rms(c)
DAV:   1    -0.112042703914E+04    0.13850E-02   -0.14544E+00 12480   0.141E+00    0.336E-01
RMM:   2    -0.112043061216E+04   -0.35730E-02   -0.36523E-02 12412   0.247E-01    0.223E-01
RMM:   3    -0.112043067982E+04   -0.67656E-04   -0.19102E-03 12202   0.823E-02    0.133E-01
RMM:   4    -0.112043059491E+04    0.84910E-04   -0.51160E-04 10707   0.254E-02    0.722E-02
RMM:   5    -0.112043057261E+04    0.22295E-04   -0.15956E-04  7420   0.177E-02    0.655E-02
RMM:   6    -0.112043057643E+04   -0.38162E-05   -0.55235E-05  7138   0.123E-02    0.268E-02
RMM:   7    -0.112043057940E+04   -0.29727E-05   -0.29161E-05  6988   0.719E-03    0.155E-02
RMM:   8    -0.112043058079E+04   -0.13856E-05   -0.17391E-05  6714   0.695E-03
   8 F= -.11204306E+04 E0= -.11204306E+04  d E =-.215448E-02  mag=    40.0000
       N       E                     dE             d eps       ncg     rms          rms(c)
DAV:   1    -0.112042825026E+04    0.23291E-02   -0.11966E+00 12600   0.128E+00    0.305E-01
RMM:   2    -0.112043120024E+04   -0.29500E-02   -0.30139E-02 12428   0.224E-01    0.203E-01
RMM:   3    -0.112043125500E+04   -0.54755E-04   -0.15740E-03 12141   0.743E-02    0.121E-01
RMM:   4    -0.112043118464E+04    0.70353E-04   -0.41010E-04  9803   0.230E-02    0.664E-02
RMM:   5    -0.112043116584E+04    0.18808E-04   -0.13428E-04  7347   0.165E-02    0.644E-02
RMM:   6    -0.112043116917E+04   -0.33344E-05   -0.49817E-05  7134   0.118E-02    0.250E-02
RMM:   7    -0.112043117179E+04   -0.26174E-05   -0.25817E-05  6985   0.677E-03    0.148E-02
RMM:   8    -0.112043117301E+04   -0.12217E-05   -0.15410E-05  6701   0.658E-03
   9 F= -.11204312E+04 E0= -.11204312E+04  d E =-.274670E-02  mag=    40.0000
       N       E                     dE             d eps       ncg     rms          rms(c)
DAV:   1    -0.112042899815E+04    0.21736E-02   -0.16932E+00 12784   0.152E+00    0.339E-01
RMM:   2    -0.112043298195E+04   -0.39838E-02   -0.42395E-02 12487   0.263E-01    0.225E-01
RMM:   3    -0.112043300199E+04   -0.20038E-04   -0.21420E-03 12261   0.865E-02    0.137E-01
RMM:   4    -0.112043292242E+04    0.79572E-04   -0.52730E-04 10895   0.263E-02    0.835E-02
RMM:   5    -0.112043289690E+04    0.25521E-04   -0.16441E-04  7507   0.181E-02    0.754E-02
RMM:   6    -0.112043290118E+04   -0.42788E-05   -0.56061E-05  7131   0.122E-02    0.247E-02
RMM:   7    -0.112043290363E+04   -0.24508E-05   -0.30156E-05  7031   0.748E-03    0.176E-02
RMM:   8    -0.112043290424E+04   -0.61054E-06   -0.18075E-05  6855   0.701E-03
  10 F= -.11204329E+04 E0= -.11204329E+04  d E =-.173123E-02  mag=    40.0000
       N       E                     dE             d eps       ncg     rms          rms(c)
DAV:   1    -0.112043168059E+04    0.12230E-02   -0.68738E-01 12800   0.967E-01    0.216E-01
RMM:   2    -0.112043331776E+04   -0.16372E-02   -0.17412E-02 12570   0.168E-01    0.144E-01
RMM:   3    -0.112043332227E+04   -0.45093E-05   -0.86965E-04 11341   0.546E-02    0.876E-02
RMM:   4    -0.112043328729E+04    0.34978E-04   -0.17885E-04  7513   0.170E-02    0.537E-02
RMM:   5    -0.112043327864E+04    0.86515E-05   -0.77478E-05  7131   0.122E-02    0.389E-02
RMM:   6    -0.112043328097E+04   -0.23290E-05   -0.28615E-05  7018   0.855E-03    0.185E-02
RMM:   7    -0.112043328219E+04   -0.12213E-05   -0.16377E-05  6649   0.541E-03    0.112E-02
RMM:   8    -0.112043328249E+04   -0.29965E-06   -0.96120E-06  6281   0.507E-03
  11 F= -.11204333E+04 E0= -.11204333E+04  d E =-.210948E-02  mag=    40.0000
       N       E                     dE             d eps       ncg     rms          rms(c)
DAV:   1    -0.112043156498E+04    0.17172E-02   -0.15339E+00 12304   0.144E+00    0.317E-01
RMM:   2    -0.112043515959E+04   -0.35946E-02   -0.38565E-02 12468   0.250E-01    0.223E-01
RMM:   3    -0.112043514766E+04    0.11925E-04   -0.18959E-03 12184   0.820E-02    0.137E-01
RMM:   4    -0.112043505719E+04    0.90473E-04   -0.51345E-04 11070   0.259E-02    0.851E-02
RMM:   5    -0.112043503465E+04    0.22545E-04   -0.12996E-04  7315   0.164E-02    0.625E-02
RMM:   6    -0.112043504139E+04   -0.67439E-05   -0.45406E-05  7116   0.104E-02    0.215E-02
RMM:   7    -0.112043504473E+04   -0.33447E-05   -0.24256E-05  6908   0.691E-03    0.166E-02
RMM:   8    -0.112043504661E+04   -0.18807E-05   -0.14910E-05  6628   0.602E-03
  12 F= -.11204350E+04 E0= -.11204350E+04  d E =-.176413E-02  mag=    40.0000
