<?xml version="1.0" encoding="ISO-8859-1"?>
<modeling>
 <generator>
  <i name="program" type="string">vasp </i>
  <i name="version" type="string">5.4.1  </i>
  <i name="subversion" type="string">05Feb16 (build Jan 25 2017 20:16:33) complex                          parallel </i>
  <i name="platform" type="string">BWXE6 </i>
  <i name="date" type="string">2019 06 24 </i>
  <i name="time" type="string">06:25:54 </i>
 </generator>
 <incar>
  <i type="string" name="SYSTEM"> STF</i>
  <i type="string" name="PREC">normal</i>
  <i type="string" name="ALGO"> Fast</i>
  <i type="int" name="ISPIN">     2</i>
  <i type="int" name="NELM">    40</i>
  <i type="int" name="NELMIN">     8</i>
  <i type="int" name="IBRION">     2</i>
  <i name="EDIFF">      0.00010000</i>
  <i name="EDIFFG">     -0.03000000</i>
  <i type="int" name="NSW">    30</i>
  <i type="int" name="ISIF">     3</i>
  <i name="ENCUT">    520.00000000</i>
  <i type="int" name="NBANDS">   768</i>
  <v name="MAGMOM">      0.60000000      0.60000000      0.60000000      0.60000000      0.60000000      0.60000000      0.60000000      0.60000000      0.60000000      0.60000000      0.60000000      0.60000000      0.60000000      0.60000000      0.60000000      0.60000000      0.60000000      0.60000000      0.60000000      0.60000000
      0.60000000      0.60000000      0.60000000      0.60000000      0.60000000      0.60000000      0.60000000      0.60000000      0.60000000      0.60000000      0.60000000      0.60000000      0.60000000      0.60000000      0.60000000      0.60000000      0.60000000      0.60000000      0.60000000      0.60000000
      0.60000000      0.60000000      0.60000000      0.60000000      0.60000000      0.60000000      0.60000000      0.60000000      0.60000000      0.60000000      0.60000000      0.60000000      0.60000000      0.60000000      0.60000000      0.60000000      5.00000000      5.00000000      5.00000000      5.00000000
      5.00000000      5.00000000      5.00000000      5.00000000      0.60000000      0.60000000      0.60000000      0.60000000      0.60000000      0.60000000      0.60000000      0.60000000      0.60000000      0.60000000      0.60000000      0.60000000      0.60000000      0.60000000      0.60000000      0.60000000
      0.60000000      0.60000000      0.60000000      0.60000000      0.60000000      0.60000000      0.60000000      0.60000000      0.60000000      0.60000000      0.60000000      0.60000000      0.60000000      0.60000000      0.60000000      0.60000000      0.60000000      0.60000000      0.60000000      0.60000000
      0.60000000      0.60000000      0.60000000      0.60000000      0.60000000      0.60000000      0.60000000      0.60000000      0.60000000      0.60000000      0.60000000      0.60000000      0.60000000      0.60000000      0.60000000      0.60000000      0.60000000      0.60000000      0.60000000      0.60000000
      0.60000000      0.60000000      0.60000000      0.60000000      0.60000000      0.60000000      0.60000000      0.60000000      0.60000000      0.60000000      0.60000000      0.60000000      0.60000000      0.60000000      0.60000000      0.60000000      0.60000000      0.60000000      0.60000000      0.60000000
      0.60000000      0.60000000      0.60000000      0.60000000      0.60000000      0.60000000      0.60000000      0.60000000      0.60000000      0.60000000      0.60000000      0.60000000      0.60000000      0.60000000      0.60000000      0.60000000</v>
  <i type="string" name="LREAL"> Auto</i>
  <i type="int" name="ISMEAR">     0</i>
  <i name="SIGMA">      0.05000000</i>
  <i type="int" name="LMAXMIX">     4</i>
  <v type="int" name="KPOINT_BSE">    -1     0     0     0</v>
  <i type="int" name="NELM">    40</i>
  <i type="logical" name="LDAU"> T  </i>
  <v type="int" name="LDAUTYPE">     2</v>
  <v type="int" name="LDAUL">     0     2     2     0</v>
  <v name="LDAUU">      0.00000000      3.00000000      5.00000000      0.00000000</v>
  <v name="LDAUJ">      0.00000000      0.00000000      0.00000000      0.00000000</v>
  <i type="int" name="LDAUPRINT">     1</i>
 </incar>
 <kpoints>
  <generation param="Monkhorst-Pack">
   <v type="int" name="divisions">       2        2        2 </v>
   <v name="usershift">      0.00000000       0.00000000       0.00000000 </v>
   <v name="genvec1">      0.50000000      -0.00000000       0.00000000 </v>
   <v name="genvec2">      0.00000000       0.50000000       0.00000000 </v>
   <v name="genvec3">      0.00000000       0.00000000       0.50000000 </v>
   <v name="shift">      0.50000000       0.50000000       0.50000000 </v>
  </generation>
  <varray name="kpointlist" >
   <v>       0.25000000       0.25000000       0.25000000 </v>
   <v>      -0.25000000       0.25000000       0.25000000 </v>
   <v>       0.25000000      -0.25000000       0.25000000 </v>
   <v>      -0.25000000      -0.25000000       0.25000000 </v>
  </varray>
  <varray name="weights" >
   <v>       0.25000000 </v>
   <v>       0.25000000 </v>
   <v>       0.25000000 </v>
   <v>       0.25000000 </v>
  </varray>
 </kpoints>
 <parameters>
  <separator name="general" >
   <i type="string" name="SYSTEM">STF</i>
   <i type="logical" name="LCOMPAT"> F  </i>
  </separator>
  <separator name="electronic" >
   <i type="string" name="PREC">normal</i>
   <i name="ENMAX">    520.00000000</i>
   <i name="ENAUG">    605.39200000</i>
   <i name="EDIFF">      0.00010000</i>
   <i type="int" name="IALGO">    68</i>
   <i type="int" name="IWAVPR">    11</i>
   <i type="int" name="NBANDS">   768</i>
   <i name="NELECT">   1032.00000000</i>
   <i type="int" name="TURBO">     0</i>
   <i type="int" name="IRESTART">     0</i>
   <i type="int" name="NREBOOT">     0</i>
   <i type="int" name="NMIN">     0</i>
   <i name="EREF">      0.00000000</i>
   <separator name="electronic smearing" >
    <i type="int" name="ISMEAR">     0</i>
    <i name="SIGMA">      0.05000000</i>
    <i name="KSPACING">      0.50000000</i>
    <i type="logical" name="KGAMMA"> T  </i>
   </separator>
   <separator name="electronic projectors" >
    <i type="logical" name="LREAL"> T  </i>
    <v name="ROPT">     -0.00050000     -0.00050000     -0.00050000     -0.00050000</v>
    <i type="int" name="LMAXPAW">  -100</i>
    <i type="int" name="LMAXMIX">     4</i>
    <i type="logical" name="NLSPLINE"> F  </i>
   </separator>
   <separator name="electronic startup" >
    <i type="int" name="ISTART">     1</i>
    <i type="int" name="ICHARG">     0</i>
    <i type="int" name="INIWAV">     1</i>
   </separator>
   <separator name="electronic spin" >
    <i type="int" name="ISPIN">     2</i>
    <i type="logical" name="LNONCOLLINEAR"> F  </i>
    <v name="MAGMOM">      0.60000000      0.60000000      0.60000000      0.60000000      0.60000000      0.60000000      0.60000000      0.60000000      0.60000000      0.60000000      0.60000000      0.60000000      0.60000000      0.60000000      0.60000000      0.60000000      0.60000000      0.60000000      0.60000000      0.60000000
      0.60000000      0.60000000      0.60000000      0.60000000      0.60000000      0.60000000      0.60000000      0.60000000      0.60000000      0.60000000      0.60000000      0.60000000      0.60000000      0.60000000      0.60000000      0.60000000      0.60000000      0.60000000      0.60000000      0.60000000
      0.60000000      0.60000000      0.60000000      0.60000000      0.60000000      0.60000000      0.60000000      0.60000000      0.60000000      0.60000000      0.60000000      0.60000000      0.60000000      0.60000000      0.60000000      0.60000000      5.00000000      5.00000000      5.00000000      5.00000000
      5.00000000      5.00000000      5.00000000      5.00000000      0.60000000      0.60000000      0.60000000      0.60000000      0.60000000      0.60000000      0.60000000      0.60000000      0.60000000      0.60000000      0.60000000      0.60000000      0.60000000      0.60000000      0.60000000      0.60000000
      0.60000000      0.60000000      0.60000000      0.60000000      0.60000000      0.60000000      0.60000000      0.60000000      0.60000000      0.60000000      0.60000000      0.60000000      0.60000000      0.60000000      0.60000000      0.60000000      0.60000000      0.60000000      0.60000000      0.60000000
      0.60000000      0.60000000      0.60000000      0.60000000      0.60000000      0.60000000      0.60000000      0.60000000      0.60000000      0.60000000      0.60000000      0.60000000      0.60000000      0.60000000      0.60000000      0.60000000      0.60000000      0.60000000      0.60000000      0.60000000
      0.60000000      0.60000000      0.60000000      0.60000000      0.60000000      0.60000000      0.60000000      0.60000000      0.60000000      0.60000000      0.60000000      0.60000000      0.60000000      0.60000000      0.60000000      0.60000000      0.60000000      0.60000000      0.60000000      0.60000000
      0.60000000      0.60000000      0.60000000      0.60000000      0.60000000      0.60000000      0.60000000      0.60000000      0.60000000      0.60000000      0.60000000      0.60000000      0.60000000      0.60000000      0.60000000      0.60000000</v>
    <i name="NUPDOWN">     -1.00000000</i>
    <i type="logical" name="LSORBIT"> F  </i>
    <v name="SAXIS">      0.00000000      0.00000000      1.00000000</v>
    <i type="logical" name="LSPIRAL"> F  </i>
    <v name="QSPIRAL">      0.00000000      0.00000000      0.00000000</v>
    <i type="logical" name="LZEROZ"> F  </i>
   </separator>
   <separator name="electronic exchange-correlation" >
    <i type="logical" name="LASPH"> F  </i>
    <i type="logical" name="LMETAGGA"> F  </i>
   </separator>
   <separator name="electronic convergence" >
    <i type="int" name="NELM">    40</i>
    <i type="int" name="NELMDL">     0</i>
    <i type="int" name="NELMIN">     8</i>
    <i name="ENINI">    520.00000000</i>
    <separator name="electronic convergence detail" >
     <i type="logical" name="LDIAG"> T  </i>
     <i type="logical" name="LSUBROT"> F  </i>
     <i name="WEIMIN">      0.00100000</i>
     <i name="EBREAK">      0.00000003</i>
     <i name="DEPER">      0.30000000</i>
     <i type="int" name="NRMM">     4</i>
     <i name="TIME">      0.40000000</i>
    </separator>
   </separator>
   <separator name="electronic mixer" >
    <i name="AMIX">      0.40000000</i>
    <i name="BMIX">      1.00000000</i>
    <i name="AMIN">      0.10000000</i>
    <i name="AMIX_MAG">      1.60000000</i>
    <i name="BMIX_MAG">      1.00000000</i>
    <separator name="electronic mixer details" >
     <i type="int" name="IMIX">     4</i>
     <i type="logical" name="MIXFIRST"> F  </i>
     <i type="int" name="MAXMIX">   -45</i>
     <i name="WC">    100.00000000</i>
     <i type="int" name="INIMIX">     1</i>
     <i type="int" name="MIXPRE">     1</i>
     <i type="int" name="MREMOVE">     5</i>
    </separator>
   </separator>
   <separator name="electronic dipolcorrection" >
    <i type="logical" name="LDIPOL"> F  </i>
    <i type="logical" name="LMONO"> F  </i>
    <i type="int" name="IDIPOL">     0</i>
    <i name="EPSILON">      1.00000000</i>
    <v name="DIPOL">   -100.00000000   -100.00000000   -100.00000000</v>
    <i name="EFIELD">      0.00000000</i>
   </separator>
  </separator>
  <separator name="grids" >
   <i type="int" name="NGX">    64</i>
   <i type="int" name="NGY">    64</i>
   <i type="int" name="NGZ">    90</i>
   <i type="int" name="NGXF">   128</i>
   <i type="int" name="NGYF">   128</i>
   <i type="int" name="NGZF">   180</i>
   <i type="logical" name="ADDGRID"> F  </i>
  </separator>
  <separator name="ionic" >
   <i type="int" name="NSW">    30</i>
   <i type="int" name="IBRION">     2</i>
   <i type="int" name="ISIF">     3</i>
   <i name="PSTRESS">      0.00000000</i>
   <i name="EDIFFG">     -0.03000000</i>
   <i type="int" name="NFREE">     1</i>
   <i name="POTIM">      0.50000000</i>
   <i name="SMASS">     -3.00000000</i>
   <i name="SCALEE">      1.00000000</i>
  </separator>
  <separator name="ionic md" >
   <i name="TEBEG">      0.00010000</i>
   <i name="TEEND">      0.00010000</i>
   <i type="int" name="NBLOCK">     1</i>
   <i type="int" name="KBLOCK">    30</i>
   <i type="int" name="NPACO">   256</i>
   <i name="APACO">     16.00000000</i>
  </separator>
  <separator name="symmetry" >
   <i type="int" name="ISYM">     2</i>
   <i name="SYMPREC">      0.00001000</i>
  </separator>
  <separator name="dos" >
   <i type="logical" name="LORBIT"> F  </i>
   <v name="RWIGS">     -1.00000000     -1.00000000     -1.00000000     -1.00000000</v>
   <i type="int" name="NEDOS">   301</i>
   <i name="EMIN">     10.00000000</i>
   <i name="EMAX">    -10.00000000</i>
   <i name="EFERMI">      0.00000000</i>
  </separator>
  <separator name="writing" >
   <i type="int" name="NWRITE">     2</i>
   <i type="logical" name="LWAVE"> T  </i>
   <i type="logical" name="LCHARG"> T  </i>
   <i type="logical" name="LPARD"> F  </i>
   <i type="logical" name="LVTOT"> F  </i>
   <i type="logical" name="LVHAR"> F  </i>
   <i type="logical" name="LELF"> F  </i>
   <i type="logical" name="LOPTICS"> F  </i>
   <v name="STM">      0.00000000      0.00000000      0.00000000      0.00000000      0.00000000      0.00000000      0.00000000</v>
  </separator>
  <separator name="performance" >
   <i type="int" name="NPAR">     2</i>
   <i type="int" name="NSIM">     4</i>
   <i type="int" name="NBLK">    -1</i>
   <i type="logical" name="LPLANE"> T  </i>
   <i type="logical" name="LSCALAPACK"> T  </i>
   <i type="logical" name="LSCAAWARE"> F  </i>
   <i type="logical" name="LSCALU"> F  </i>
   <i type="logical" name="LASYNC"> F  </i>
   <i type="logical" name="LORBITALREAL"> F  </i>
  </separator>
  <separator name="miscellaneous" >
   <i type="int" name="IDIOT">     3</i>
   <i type="logical" name="LMUSIC"> F  </i>
   <v name="POMASS">     87.62000000     47.88000000     55.84700000     16.00000000</v>
   <v name="DARWINR">      0.00000000      0.00000000      0.00000000      0.00000000</v>
   <v name="DARWINV">      1.00000000      1.00000000      1.00000000      1.00000000</v>
   <i type="logical" name="LCORR"> T  </i>
  </separator>
  <i type="logical" name="GGA_COMPAT"> T  </i>
  <i type="logical" name="LBERRY"> F  </i>
  <i type="int" name="ICORELEVEL">     0</i>
  <i type="logical" name="LDAU"> T  </i>
  <v type="int" name="LDAUTYPE">     2</v>
  <v type="int" name="LDAUL">     0</v>
  <v name="LDAUU">      0.00000000</v>
  <v name="LDAUJ">      0.00000000</v>
  <i type="int" name="LDAUPRINT">     1</i>
  <i type="int" name="I_CONSTRAINED_M">     0</i>
  <separator name="electronic exchange-correlation" >
   <i type="string" name="GGA">--</i>
   <i type="int" name="VOSKOWN">     0</i>
   <i type="logical" name="LHFCALC"> F  </i>
   <i type="string" name="PRECFOCK"></i>
   <i type="logical" name="LSYMGRAD"> F  </i>
   <i type="logical" name="LHFONE"> F  </i>
   <i type="logical" name="LRHFCALC"> F  </i>
   <i type="logical" name="LTHOMAS"> F  </i>
   <i type="logical" name="LMODELHF"> F  </i>
   <i name="ENCUT4O">     -1.00000000</i>
   <i type="int" name="EXXOEP">     0</i>
   <i type="int" name="FOURORBIT">     0</i>
   <i name="AEXX">      0.00000000</i>
   <i name="HFALPHA">      0.00000000</i>
   <i name="MCALPHA">      0.00000000</i>
   <i name="ALDAX">      1.00000000</i>
   <i name="AGGAX">      1.00000000</i>
   <i name="ALDAC">      1.00000000</i>
   <i name="AGGAC">      1.00000000</i>
   <i type="int" name="NKREDX">     1</i>
   <i type="int" name="NKREDY">     1</i>
   <i type="int" name="NKREDZ">     1</i>
   <i type="logical" name="SHIFTRED"> F  </i>
   <i type="logical" name="ODDONLY"> F  </i>
   <i type="logical" name="EVENONLY"> F  </i>
   <i type="int" name="LMAXFOCK">     0</i>
   <i type="int" name="NMAXFOCKAE">     0</i>
   <i type="logical" name="LFOCKAEDFT"> F  </i>
   <i name="HFSCREEN">      0.00000000</i>
   <i name="HFSCREENC">      0.00000000</i>
   <i type="int" name="NBANDSGWLOW">     0</i>
  </separator>
  <separator name="vdW DFT" >
   <i type="logical" name="LUSE_VDW"> F  </i>
   <i name="Zab_VDW">     -0.84910000</i>
   <i name="PARAM1">      0.12340000</i>
   <i name="PARAM2">      1.00000000</i>
   <i name="PARAM3">      0.00000000</i>
  </separator>
  <separator name="model GW" >
   <i type="int" name="MODEL_GW">     0</i>
   <i name="MODEL_EPS0">      7.71703913</i>
   <i name="MODEL_ALPHA">      1.00000000</i>
  </separator>
  <separator name="linear response parameters" >
   <i type="logical" name="LEPSILON"> F  </i>
   <i type="logical" name="LRPA"> F  </i>
   <i type="logical" name="LNABLA"> F  </i>
   <i type="logical" name="LVEL"> F  </i>
   <i type="int" name="KINTER">     0</i>
   <i name="CSHIFT">      0.10000000</i>
   <i name="OMEGAMAX">     -1.00000000</i>
   <i name="DEG_THRESHOLD">      0.00200000</i>
  </separator>
  <separator name="orbital magnetization" >
   <i type="logical" name="NUCIND"> F  </i>
   <v name="MAGPOS">      0.00000000      0.00000000      0.00000000</v>
   <i type="logical" name="LNICSALL"> T  </i>
   <i type="logical" name="ORBITALMAG"> F  </i>
   <i type="logical" name="LMAGBLOCH"> F  </i>
   <i type="logical" name="LCHIMAG"> F  </i>
   <i type="logical" name="LGAUGE"> T  </i>
   <i type="int" name="MAGATOM">     0</i>
   <v name="MAGDIPOL">      0.00000000      0.00000000      0.00000000</v>
   <v name="AVECCONST">      0.00000000      0.00000000      0.00000000</v>
  </separator>
  <separator name="response functions" >
   <i type="logical" name="LADDER"> F  </i>
   <i type="logical" name="LFXC"> F  </i>
   <i type="logical" name="LHARTREE"> T  </i>
   <i type="int" name="IBSE">     0</i>
   <v type="int" name="KPOINT">    -1     0     0     0</v>
   <i type="logical" name="LTCTE"> F  </i>
   <i type="logical" name="LTETE"> F  </i>
   <i type="logical" name="LTRIPLET"> F  </i>
   <i type="logical" name="LFXCEPS"> F  </i>
   <i type="logical" name="LFXHEG"> F  </i>
   <i type="int" name="NATURALO">     0</i>
   <i type="logical" name="L2ORDER"> F  </i>
   <i type="logical" name="LUSEW"> F  </i>
   <i name="ENCUTGW">     -2.00000000</i>
   <i name="ENCUTGWSOFT">     -2.00000000</i>
   <i name="ENCUTLF">     -1.00000000</i>
   <i type="int" name="LMAXMP2">    -1</i>
   <i name="SCISSOR">      0.00000000</i>
   <i type="int" name="NOMEGA">     0</i>
   <i type="int" name="NOMEGAR">     0</i>
   <i type="int" name="NBANDSGW">    -1</i>
   <i type="int" name="NBANDSO">    -1</i>
   <i type="int" name="NBANDSV">    -1</i>
   <i type="int" name="NELM">    40</i>
   <i type="int" name="NELMHF">     1</i>
   <i type="int" name="DIM">     3</i>
   <i type="int" name="ANTIRES">     0</i>
   <i name="OMEGAMAX">    -30.00000000</i>
   <i name="OMEGAMIN">    -30.00000000</i>
   <i name="OMEGATL">   -200.00000000</i>
   <i type="int" name="OMEGAGRID">     0</i>
   <i name="CSHIFT">     -0.10000000</i>
   <i type="logical" name="SELFENERGY"> F  </i>
   <i type="logical" name="LSPECTRAL"> F  </i>
   <i type="logical" name="LSPECTRALGW"> F  </i>
   <i type="logical" name="LSINGLES"> F  </i>
   <i type="logical" name="LFERMIGW"> F  </i>
   <i type="logical" name="ODDONLYGW"> F  </i>
   <i type="logical" name="EVENONLYGW"> F  </i>
   <i type="int" name="NKREDLFX">     1</i>
   <i type="int" name="NKREDLFY">     1</i>
   <i type="int" name="NKREDLFZ">     1</i>
   <i type="int" name="MAXMEM">  1800</i>
   <i type="int" name="TELESCOPE">     0</i>
   <i type="int" name="TAUPAR">     1</i>
   <i type="int" name="OMEGAPAR">    -1</i>
   <i name="LAMBDA">      1.00000000</i>
  </separator>
  <separator name="External order field" >
   <i name="OFIELD_KAPPA">      0.00000000</i>
   <v name="OFIELD_K">      0.00000000      0.00000000      0.00000000</v>
   <i name="OFIELD_Q6_NEAR">      0.00000000</i>
   <i name="OFIELD_Q6_FAR">      0.00000000</i>
   <i name="OFIELD_A">      0.00000000</i>
  </separator>
 </parameters>
 <atominfo>
  <atoms>     156 </atoms>
  <types>       4 </types>
  <array name="atoms" >
   <dimension dim="1">ion</dimension>
   <field type="string">element</field>
   <field type="int">atomtype</field>
   <set>
    <rc><c>Sr</c><c>   1</c></rc>
    <rc><c>Sr</c><c>   1</c></rc>
    <rc><c>Sr</c><c>   1</c></rc>
    <rc><c>Sr</c><c>   1</c></rc>
    <rc><c>Sr</c><c>   1</c></rc>
    <rc><c>Sr</c><c>   1</c></rc>
    <rc><c>Sr</c><c>   1</c></rc>
    <rc><c>Sr</c><c>   1</c></rc>
    <rc><c>Sr</c><c>   1</c></rc>
    <rc><c>Sr</c><c>   1</c></rc>
    <rc><c>Sr</c><c>   1</c></rc>
    <rc><c>Sr</c><c>   1</c></rc>
    <rc><c>Sr</c><c>   1</c></rc>
    <rc><c>Sr</c><c>   1</c></rc>
    <rc><c>Sr</c><c>   1</c></rc>
    <rc><c>Sr</c><c>   1</c></rc>
    <rc><c>Sr</c><c>   1</c></rc>
    <rc><c>Sr</c><c>   1</c></rc>
    <rc><c>Sr</c><c>   1</c></rc>
    <rc><c>Sr</c><c>   1</c></rc>
    <rc><c>Sr</c><c>   1</c></rc>
    <rc><c>Sr</c><c>   1</c></rc>
    <rc><c>Sr</c><c>   1</c></rc>
    <rc><c>Sr</c><c>   1</c></rc>
    <rc><c>Sr</c><c>   1</c></rc>
    <rc><c>Sr</c><c>   1</c></rc>
    <rc><c>Sr</c><c>   1</c></rc>
    <rc><c>Sr</c><c>   1</c></rc>
    <rc><c>Sr</c><c>   1</c></rc>
    <rc><c>Sr</c><c>   1</c></rc>
    <rc><c>Sr</c><c>   1</c></rc>
    <rc><c>Sr</c><c>   1</c></rc>
    <rc><c>Ti</c><c>   2</c></rc>
    <rc><c>Ti</c><c>   2</c></rc>
    <rc><c>Ti</c><c>   2</c></rc>
    <rc><c>Ti</c><c>   2</c></rc>
    <rc><c>Ti</c><c>   2</c></rc>
    <rc><c>Ti</c><c>   2</c></rc>
    <rc><c>Ti</c><c>   2</c></rc>
    <rc><c>Ti</c><c>   2</c></rc>
    <rc><c>Ti</c><c>   2</c></rc>
    <rc><c>Ti</c><c>   2</c></rc>
    <rc><c>Ti</c><c>   2</c></rc>
    <rc><c>Ti</c><c>   2</c></rc>
    <rc><c>Ti</c><c>   2</c></rc>
    <rc><c>Ti</c><c>   2</c></rc>
    <rc><c>Ti</c><c>   2</c></rc>
    <rc><c>Ti</c><c>   2</c></rc>
    <rc><c>Ti</c><c>   2</c></rc>
    <rc><c>Ti</c><c>   2</c></rc>
    <rc><c>Ti</c><c>   2</c></rc>
    <rc><c>Ti</c><c>   2</c></rc>
    <rc><c>Ti</c><c>   2</c></rc>
    <rc><c>Ti</c><c>   2</c></rc>
    <rc><c>Ti</c><c>   2</c></rc>
    <rc><c>Ti</c><c>   2</c></rc>
    <rc><c>Fe</c><c>   3</c></rc>
    <rc><c>Fe</c><c>   3</c></rc>
    <rc><c>Fe</c><c>   3</c></rc>
    <rc><c>Fe</c><c>   3</c></rc>
    <rc><c>Fe</c><c>   3</c></rc>
    <rc><c>Fe</c><c>   3</c></rc>
    <rc><c>Fe</c><c>   3</c></rc>
    <rc><c>Fe</c><c>   3</c></rc>
    <rc><c>O </c><c>   4</c></rc>
    <rc><c>O </c><c>   4</c></rc>
    <rc><c>O </c><c>   4</c></rc>
    <rc><c>O </c><c>   4</c></rc>
    <rc><c>O </c><c>   4</c></rc>
    <rc><c>O </c><c>   4</c></rc>
    <rc><c>O </c><c>   4</c></rc>
    <rc><c>O </c><c>   4</c></rc>
    <rc><c>O </c><c>   4</c></rc>
    <rc><c>O </c><c>   4</c></rc>
    <rc><c>O </c><c>   4</c></rc>
    <rc><c>O </c><c>   4</c></rc>
    <rc><c>O </c><c>   4</c></rc>
    <rc><c>O </c><c>   4</c></rc>
    <rc><c>O </c><c>   4</c></rc>
    <rc><c>O </c><c>   4</c></rc>
    <rc><c>O </c><c>   4</c></rc>
    <rc><c>O </c><c>   4</c></rc>
    <rc><c>O </c><c>   4</c></rc>
    <rc><c>O </c><c>   4</c></rc>
    <rc><c>O </c><c>   4</c></rc>
    <rc><c>O </c><c>   4</c></rc>
    <rc><c>O </c><c>   4</c></rc>
    <rc><c>O </c><c>   4</c></rc>
    <rc><c>O </c><c>   4</c></rc>
    <rc><c>O </c><c>   4</c></rc>
    <rc><c>O </c><c>   4</c></rc>
    <rc><c>O </c><c>   4</c></rc>
    <rc><c>O </c><c>   4</c></rc>
    <rc><c>O </c><c>   4</c></rc>
    <rc><c>O </c><c>   4</c></rc>
    <rc><c>O </c><c>   4</c></rc>
    <rc><c>O </c><c>   4</c></rc>
    <rc><c>O </c><c>   4</c></rc>
    <rc><c>O </c><c>   4</c></rc>
    <rc><c>O </c><c>   4</c></rc>
    <rc><c>O </c><c>   4</c></rc>
    <rc><c>O </c><c>   4</c></rc>
    <rc><c>O </c><c>   4</c></rc>
    <rc><c>O </c><c>   4</c></rc>
    <rc><c>O </c><c>   4</c></rc>
    <rc><c>O </c><c>   4</c></rc>
    <rc><c>O </c><c>   4</c></rc>
    <rc><c>O </c><c>   4</c></rc>
    <rc><c>O </c><c>   4</c></rc>
    <rc><c>O </c><c>   4</c></rc>
    <rc><c>O </c><c>   4</c></rc>
    <rc><c>O </c><c>   4</c></rc>
    <rc><c>O </c><c>   4</c></rc>
    <rc><c>O </c><c>   4</c></rc>
    <rc><c>O </c><c>   4</c></rc>
    <rc><c>O </c><c>   4</c></rc>
    <rc><c>O </c><c>   4</c></rc>
    <rc><c>O </c><c>   4</c></rc>
    <rc><c>O </c><c>   4</c></rc>
    <rc><c>O </c><c>   4</c></rc>
    <rc><c>O </c><c>   4</c></rc>
    <rc><c>O </c><c>   4</c></rc>
    <rc><c>O </c><c>   4</c></rc>
    <rc><c>O </c><c>   4</c></rc>
    <rc><c>O </c><c>   4</c></rc>
    <rc><c>O </c><c>   4</c></rc>
    <rc><c>O </c><c>   4</c></rc>
    <rc><c>O </c><c>   4</c></rc>
    <rc><c>O </c><c>   4</c></rc>
    <rc><c>O </c><c>   4</c></rc>
    <rc><c>O </c><c>   4</c></rc>
    <rc><c>O </c><c>   4</c></rc>
    <rc><c>O </c><c>   4</c></rc>
    <rc><c>O </c><c>   4</c></rc>
    <rc><c>O </c><c>   4</c></rc>
    <rc><c>O </c><c>   4</c></rc>
    <rc><c>O </c><c>   4</c></rc>
    <rc><c>O </c><c>   4</c></rc>
    <rc><c>O </c><c>   4</c></rc>
    <rc><c>O </c><c>   4</c></rc>
    <rc><c>O </c><c>   4</c></rc>
    <rc><c>O </c><c>   4</c></rc>
    <rc><c>O </c><c>   4</c></rc>
    <rc><c>O </c><c>   4</c></rc>
    <rc><c>O </c><c>   4</c></rc>
    <rc><c>O </c><c>   4</c></rc>
    <rc><c>O </c><c>   4</c></rc>
    <rc><c>O </c><c>   4</c></rc>
    <rc><c>O </c><c>   4</c></rc>
    <rc><c>O </c><c>   4</c></rc>
    <rc><c>O </c><c>   4</c></rc>
    <rc><c>O </c><c>   4</c></rc>
    <rc><c>O </c><c>   4</c></rc>
    <rc><c>O </c><c>   4</c></rc>
    <rc><c>O </c><c>   4</c></rc>
    <rc><c>O </c><c>   4</c></rc>
   </set>
  </array>
  <array name="atomtypes" >
   <dimension dim="1">type</dimension>
   <field type="int">atomspertype</field>
   <field type="string">element</field>
   <field>mass</field>
   <field>valence</field>
   <field type="string">pseudopotential</field>
   <set>
    <rc><c>  32</c><c>Sr</c><c>     87.62000000</c><c>     10.00000000</c><c>  PAW_PBE Sr_sv 07Sep2000               </c></rc>
    <rc><c>  24</c><c>Ti</c><c>     47.88000000</c><c>      4.00000000</c><c>  PAW_PBE Ti 08Apr2002                  </c></rc>
    <rc><c>   8</c><c>Fe</c><c>     55.84700000</c><c>      8.00000000</c><c>  PAW_PBE Fe 06Sep2000                  </c></rc>
    <rc><c>  92</c><c>O </c><c>     16.00000000</c><c>      6.00000000</c><c>  PAW_PBE O 08Apr2002                   </c></rc>
   </set>
  </array>
 </atominfo>
 <structure name="initialpos" >
  <crystal>
   <varray name="basis" >
    <v>      11.23654407      -0.00000938      -0.00023529 </v>
    <v>      -0.00000087      11.24479978       0.00129679 </v>
    <v>      -0.00033936       0.00183920      15.87960042 </v>
   </varray>
   <i name="volume">   2006.43017398 </i>
   <varray name="rec_basis" >
    <v>       0.08899533       0.00000001       0.00000190 </v>
    <v>       0.00000007       0.08893000      -0.00001030 </v>
    <v>       0.00000132      -0.00000726       0.06297388 </v>
   </varray>
  </crystal>
  <varray name="positions" >
   <v>       0.99857197       0.24794287       0.12059602 </v>
   <v>       0.99518149       0.25542651       0.62065437 </v>
   <v>       0.99191606       0.74874029       0.12428165 </v>
   <v>       0.00097424       0.74811781       0.61786733 </v>
   <v>       0.49697876       0.24728652       0.12315940 </v>
   <v>       0.50445588       0.24225146       0.61653939 </v>
   <v>       0.50423716       0.75261374       0.12209211 </v>
   <v>       0.49961806       0.75990899       0.62021701 </v>
   <v>       0.99855407       0.24536784       0.37856106 </v>
   <v>       0.99476327       0.25768012       0.88050411 </v>
   <v>       0.99169484       0.75083171       0.37689523 </v>
   <v>       0.00087032       0.74564222       0.88155087 </v>
   <v>       0.49755312       0.24440199       0.37657081 </v>
   <v>       0.50461821       0.24491289       0.88444661 </v>
   <v>       0.50406320       0.75456593       0.37851120 </v>
   <v>       0.49975468       0.75845575       0.87880185 </v>
   <v>       0.24806948       0.01286116       0.12294697 </v>
   <v>       0.25977064       0.99739642       0.61608385 </v>
   <v>       0.24659318       0.48838028       0.11789325 </v>
   <v>       0.24722122       0.49957330       0.62006841 </v>
   <v>       0.75077535       0.99854207       0.12347801 </v>
   <v>       0.74094764       0.99945026       0.61821769 </v>
   <v>       0.75640590       0.50353931       0.12201572 </v>
   <v>       0.75510052       0.49859561       0.62074960 </v>
   <v>       0.24785101       0.00927666       0.37741472 </v>
   <v>       0.25888995       0.00003332       0.88264267 </v>
   <v>       0.24698695       0.49009977       0.38106541 </v>
   <v>       0.24742849       0.49725751       0.88061257 </v>
   <v>       0.75060373       0.99719052       0.37733759 </v>
   <v>       0.74171616       0.00216384       0.88074242 </v>
   <v>       0.75648150       0.50575099       0.37699122 </v>
   <v>       0.75452308       0.49709419       0.88039808 </v>
   <v>       0.00198167       0.00113140       0.99973513 </v>
   <v>       0.00090715       0.49843964       0.00233692 </v>
   <v>       0.00049014       0.50050882       0.49762152 </v>
   <v>       0.49988789       0.00234642       0.00312523 </v>
   <v>       0.49848252       0.49801141       0.00056409 </v>
   <v>       0.49925009       0.49972498       0.49980917 </v>
   <v>       0.25035079       0.24841566       0.50097528 </v>
   <v>       0.24879368       0.74834678       0.00075406 </v>
   <v>       0.24877102       0.74978656       0.49896063 </v>
   <v>       0.75042437       0.24695060       0.49850916 </v>
   <v>       0.74953187       0.74973841       0.00012191 </v>
   <v>       0.74976064       0.75233596       0.49977511 </v>
   <v>       0.24665220       0.25319299       0.24842562 </v>
   <v>       0.23516355       0.23988187       0.75065997 </v>
   <v>       0.75367638       0.24294584       0.24804256 </v>
   <v>       0.74478641       0.25541628       0.75099115 </v>
   <v>       0.75452246       0.75243252       0.75007484 </v>
   <v>       0.99747576       0.00065918       0.25182855 </v>
   <v>       0.98376690       0.00175812       0.74993349 </v>
   <v>       0.99982450       0.50318389       0.74991196 </v>
   <v>       0.50526821       0.00202817       0.25164283 </v>
   <v>       0.49867214       0.99999808       0.74875646 </v>
   <v>       0.51672647       0.49367367       0.25027194 </v>
   <v>       0.51012353       0.51409833       0.74992561 </v>
   <v>       0.00239127       0.99837397       0.50085109 </v>
   <v>       0.49971106       0.99952914       0.49709896 </v>
   <v>       0.25067567       0.25088674       0.99835210 </v>
   <v>       0.74982713       0.25002352       0.00123802 </v>
   <v>       0.25531377       0.77591343       0.24933862 </v>
   <v>       0.25854983       0.73437100       0.75011880 </v>
   <v>       0.75045509       0.75118954       0.24987043 </v>
   <v>       0.99081415       0.48594442       0.25016201 </v>
   <v>       0.10648477       0.14699835       0.24936969 </v>
   <v>       0.10742415       0.13493609       0.75213425 </v>
   <v>       0.10398713       0.64769860       0.74968515 </v>
   <v>       0.60616845       0.14840167       0.24946823 </v>
   <v>       0.60876780       0.14075137       0.75025306 </v>
   <v>       0.60000328       0.64490687       0.25041344 </v>
   <v>       0.60154636       0.64917266       0.74918166 </v>
   <v>       0.38920693       0.37206267       0.25114224 </v>
   <v>       0.39952236       0.85798782       0.24940264 </v>
   <v>       0.37751245       0.86720831       0.75010742 </v>
   <v>       0.89282046       0.35059905       0.25055957 </v>
   <v>       0.89109891       0.35576007       0.74981529 </v>
   <v>       0.89462123       0.86155082       0.24959695 </v>
   <v>       0.89831811       0.85114175       0.75040121 </v>
   <v>       0.35898295       0.11450836       0.25049229 </v>
   <v>       0.36416120       0.12151875       0.74896136 </v>
   <v>       0.35426504       0.59419252       0.75033728 </v>
   <v>       0.85443116       0.10435829       0.25044468 </v>
   <v>       0.85457364       0.10326273       0.74850821 </v>
   <v>       0.87039563       0.61369974       0.24974864 </v>
   <v>       0.85191905       0.60432006       0.75053910 </v>
   <v>       0.14689404       0.40288659       0.25047255 </v>
   <v>       0.14405020       0.39236721       0.74961791 </v>
   <v>       0.13977822       0.89513778       0.24863574 </v>
   <v>       0.64881885       0.39598627       0.25003321 </v>
   <v>       0.63557375       0.39205412       0.75007898 </v>
   <v>       0.64376753       0.89740749       0.24968055 </v>
   <v>       0.64047712       0.89194528       0.75040106 </v>
   <v>       0.36637206       0.38665582       0.00338671 </v>
   <v>       0.36454233       0.38561197       0.49612984 </v>
   <v>       0.36241139       0.88265407       0.01031985 </v>
   <v>       0.36235698       0.88071861       0.48944947 </v>
   <v>       0.86698501       0.38648570       0.00313818 </v>
   <v>       0.86544062       0.38618019       0.49667261 </v>
   <v>       0.86585122       0.88448712       0.99739793 </v>
   <v>       0.86583313       0.88374535       0.50246063 </v>
   <v>       0.13597703       0.11365676       0.99255624 </v>
   <v>       0.13706186       0.11677532       0.50800524 </v>
   <v>       0.13638382       0.61402905       0.99481865 </v>
   <v>       0.13630373       0.61270488       0.50464206 </v>
   <v>       0.63280933       0.11422206       0.99774519 </v>
   <v>       0.63468932       0.11710733       0.50235353 </v>
   <v>       0.63442670       0.61344927       0.99526237 </v>
   <v>       0.63439757       0.61187020       0.50574717 </v>
   <v>       0.11424985       0.36543726       0.99847684 </v>
   <v>       0.11397235       0.36440802       0.50149052 </v>
   <v>       0.11589945       0.86077120       0.01307720 </v>
   <v>       0.11743205       0.86022346       0.48729043 </v>
   <v>       0.61269644       0.36753129       0.00574503 </v>
   <v>       0.61278046       0.36577947       0.49479695 </v>
   <v>       0.61356764       0.86437680       0.99933191 </v>
   <v>       0.61543255       0.86352351       0.50105300 </v>
   <v>       0.38412884       0.13274057       0.99891840 </v>
   <v>       0.38256724       0.13510130       0.50144477 </v>
   <v>       0.38566895       0.63748966       0.99260169 </v>
   <v>       0.38580642       0.63547981       0.50740503 </v>
   <v>       0.88767107       0.13036375       0.98937250 </v>
   <v>       0.88523326       0.13421363       0.50907016 </v>
   <v>       0.88510230       0.63532215       0.99957547 </v>
   <v>       0.88517146       0.63431898       0.50060050 </v>
   <v>       0.99803396       0.00990285       0.12323590 </v>
   <v>       0.02562718       0.97776108       0.63429355 </v>
   <v>       0.00852143       0.50976776       0.12619040 </v>
   <v>       0.99652569       0.49805372       0.62556680 </v>
   <v>       0.50245405       0.00540680       0.12568437 </v>
   <v>       0.49714554       0.99596978       0.62529723 </v>
   <v>       0.49010237       0.51434301       0.12817451 </v>
   <v>       0.48958828       0.48188057       0.62976859 </v>
   <v>       0.99999378       0.00881207       0.37472180 </v>
   <v>       0.02264958       0.97690951       0.86808594 </v>
   <v>       0.00777703       0.50956038       0.37410186 </v>
   <v>       0.99699640       0.49849367       0.87404455 </v>
   <v>       0.50304291       0.00563468       0.37356330 </v>
   <v>       0.49566758       0.99531620       0.87561573 </v>
   <v>       0.49106121       0.51397157       0.37288439 </v>
   <v>       0.49136061       0.48420511       0.87022874 </v>
   <v>       0.24653805       0.24856163       0.37617770 </v>
   <v>       0.26662316       0.26543013       0.86828600 </v>
   <v>       0.24789791       0.71354738       0.36027991 </v>
   <v>       0.24201259       0.76506471       0.87470811 </v>
   <v>       0.75276576       0.24497175       0.37508737 </v>
   <v>       0.74796039       0.25410758       0.87339216 </v>
   <v>       0.74900891       0.74768661       0.37686465 </v>
   <v>       0.74807714       0.75086466       0.87359725 </v>
   <v>       0.24806554       0.24943975       0.12547968 </v>
   <v>       0.26356024       0.26502351       0.63003859 </v>
   <v>       0.24792432       0.71319516       0.13875086 </v>
   <v>       0.24293208       0.76312130       0.62534426 </v>
   <v>       0.75410152       0.24455320       0.12566966 </v>
   <v>       0.74698412       0.25660096       0.62554003 </v>
   <v>       0.74868860       0.74859710       0.12285506 </v>
   <v>       0.74932041       0.75040075       0.62696226 </v>
  </varray>
 </structure>
 <calculation>
  <scstep>
   <time name="dav">  595.84  595.88</time>
   <time name="total">  603.01  603.15</time>
   <energy>
    <i name="alphaZ">   5624.59460797 </i>
    <i name="ewald"> -61284.56554651 </i>
    <i name="hartreedc"> -16240.84623805 </i>
    <i name="XCdc">   2963.27073591 </i>
    <i name="pawpsdc"> 113137.79472609 </i>
    <i name="pawaedc">-112037.24862145 </i>
    <i name="eentropy">     -0.00000000 </i>
    <i name="bandstr">  -7066.86579533 </i>
    <i name="atom">  73783.44779670 </i>
    <i name="e_fr_energy">  -1120.41833466 </i>
    <i name="e_wo_entrp">  -1120.41833466 </i>
    <i name="e_0_energy">  -1120.41833466 </i>
   </energy>
  </scstep>
  <scstep>
   <time name="diag">   64.94   64.95</time>
   <time name="diis">   63.20   63.22</time>
   <time name="orth">   33.13   33.13</time>
   <time name="total">  168.57  168.64</time>
   <energy>
    <i name="e_fr_energy">  -1120.41833644 </i>
    <i name="e_wo_entrp">  -1120.41833644 </i>
    <i name="e_0_energy">  -1120.41833644 </i>
   </energy>
  </scstep>
  <scstep>
   <time name="diag">   65.07   65.07</time>
   <time name="diis">   62.07   62.07</time>
   <time name="orth">   33.15   33.15</time>
   <time name="total">  167.61  167.67</time>
   <energy>
    <i name="e_fr_energy">  -1120.41833716 </i>
    <i name="e_wo_entrp">  -1120.41833716 </i>
    <i name="e_0_energy">  -1120.41833716 </i>
   </energy>
  </scstep>
  <scstep>
   <time name="diag">   64.96   64.97</time>
   <time name="diis">   55.74   55.74</time>
   <time name="orth">   33.22   33.24</time>
   <time name="total">  161.17  161.28</time>
   <energy>
    <i name="e_fr_energy">  -1120.41833859 </i>
    <i name="e_wo_entrp">  -1120.41833859 </i>
    <i name="e_0_energy">  -1120.41833859 </i>
   </energy>
  </scstep>
  <scstep>
   <time name="diag">   65.02   65.06</time>
   <time name="diis">   54.91   54.92</time>
   <time name="orth">   33.17   33.16</time>
   <time name="total">  160.41  160.57</time>
   <energy>
    <i name="e_fr_energy">  -1120.41833983 </i>
    <i name="e_wo_entrp">  -1120.41833983 </i>
    <i name="e_0_energy">  -1120.41833983 </i>
   </energy>
  </scstep>
  <scstep>
   <time name="diag">   65.00   65.00</time>
   <time name="diis">   50.74   50.74</time>
   <time name="orth">   33.15   33.15</time>
   <time name="total">  156.19  156.29</time>
   <energy>
    <i name="e_fr_energy">  -1120.41834043 </i>
    <i name="e_wo_entrp">  -1120.41834043 </i>
    <i name="e_0_energy">  -1120.41834043 </i>
   </energy>
  </scstep>
  <scstep>
   <time name="diag">   64.59   64.60</time>
   <time name="diis">   48.72   48.74</time>
   <time name="orth">   33.39   33.39</time>
   <time name="total">  153.87  153.99</time>
   <energy>
    <i name="e_fr_energy">  -1120.41834065 </i>
    <i name="e_wo_entrp">  -1120.41834065 </i>
    <i name="e_0_energy">  -1120.41834065 </i>
   </energy>
  </scstep>
  <scstep>
   <time name="diag">   64.62   64.62</time>
   <time name="diis">   46.98   46.98</time>
   <time name="orth">   33.35   33.35</time>
   <time name="total">  146.01  146.07</time>
   <energy>
    <i name="alphaZ">   5624.59460797 </i>
    <i name="ewald"> -61284.56554651 </i>
    <i name="hartreedc"> -16240.84984935 </i>
    <i name="XCdc">   2963.26844252 </i>
    <i name="pawpsdc"> 113135.06867380 </i>
    <i name="pawaedc">-112034.50189306 </i>
    <i name="eentropy">     -0.00000000 </i>
    <i name="bandstr">  -7066.88057292 </i>
    <i name="atom">  73783.44779670 </i>
    <i name="e_fr_energy">  -1120.41834084 </i>
    <i name="e_wo_entrp">  -1120.41834084 </i>
    <i name="e_0_energy">  -1120.41834084 </i>
   </energy>
  </scstep>
  <structure>
   <crystal>
    <varray name="basis" >
     <v>      11.23654407      -0.00000938      -0.00023529 </v>
     <v>      -0.00000087      11.24479978       0.00129679 </v>
     <v>      -0.00033936       0.00183920      15.87960042 </v>
    </varray>
    <i name="volume">   2006.43017398 </i>
    <varray name="rec_basis" >
     <v>       0.08899533       0.00000001       0.00000190 </v>
     <v>       0.00000007       0.08893000      -0.00001030 </v>
     <v>       0.00000132      -0.00000726       0.06297388 </v>
    </varray>
   </crystal>
   <varray name="positions" >
    <v>       0.99857197       0.24794287       0.12059602 </v>
    <v>       0.99518149       0.25542651       0.62065437 </v>
    <v>       0.99191606       0.74874029       0.12428165 </v>
    <v>       0.00097424       0.74811781       0.61786733 </v>
    <v>       0.49697876       0.24728652       0.12315940 </v>
    <v>       0.50445588       0.24225146       0.61653939 </v>
    <v>       0.50423716       0.75261374       0.12209211 </v>
    <v>       0.49961806       0.75990899       0.62021701 </v>
    <v>       0.99855407       0.24536784       0.37856106 </v>
    <v>       0.99476327       0.25768012       0.88050411 </v>
    <v>       0.99169484       0.75083171       0.37689523 </v>
    <v>       0.00087032       0.74564222       0.88155087 </v>
    <v>       0.49755312       0.24440199       0.37657081 </v>
    <v>       0.50461821       0.24491289       0.88444661 </v>
    <v>       0.50406320       0.75456593       0.37851120 </v>
    <v>       0.49975468       0.75845575       0.87880185 </v>
    <v>       0.24806948       0.01286116       0.12294697 </v>
    <v>       0.25977064       0.99739642       0.61608385 </v>
    <v>       0.24659318       0.48838028       0.11789325 </v>
    <v>       0.24722122       0.49957330       0.62006841 </v>
    <v>       0.75077535       0.99854207       0.12347801 </v>
    <v>       0.74094764       0.99945026       0.61821769 </v>
    <v>       0.75640590       0.50353931       0.12201572 </v>
    <v>       0.75510052       0.49859561       0.62074960 </v>
    <v>       0.24785101       0.00927666       0.37741472 </v>
    <v>       0.25888995       0.00003332       0.88264267 </v>
    <v>       0.24698695       0.49009977       0.38106541 </v>
    <v>       0.24742849       0.49725751       0.88061257 </v>
    <v>       0.75060373       0.99719052       0.37733759 </v>
    <v>       0.74171616       0.00216384       0.88074242 </v>
    <v>       0.75648150       0.50575099       0.37699122 </v>
    <v>       0.75452308       0.49709419       0.88039808 </v>
    <v>       0.00198167       0.00113140       0.99973513 </v>
    <v>       0.00090715       0.49843964       0.00233692 </v>
    <v>       0.00049014       0.50050882       0.49762152 </v>
    <v>       0.49988789       0.00234642       0.00312523 </v>
    <v>       0.49848252       0.49801141       0.00056409 </v>
    <v>       0.49925009       0.49972498       0.49980917 </v>
    <v>       0.25035079       0.24841566       0.50097528 </v>
    <v>       0.24879368       0.74834678       0.00075406 </v>
    <v>       0.24877102       0.74978656       0.49896063 </v>
    <v>       0.75042437       0.24695060       0.49850916 </v>
    <v>       0.74953187       0.74973841       0.00012191 </v>
    <v>       0.74976064       0.75233596       0.49977511 </v>
    <v>       0.24665220       0.25319299       0.24842562 </v>
    <v>       0.23516355       0.23988187       0.75065997 </v>
    <v>       0.75367638       0.24294584       0.24804256 </v>
    <v>       0.74478641       0.25541628       0.75099115 </v>
    <v>       0.75452246       0.75243252       0.75007484 </v>
    <v>       0.99747576       0.00065918       0.25182855 </v>
    <v>       0.98376690       0.00175812       0.74993349 </v>
    <v>       0.99982450       0.50318389       0.74991196 </v>
    <v>       0.50526821       0.00202817       0.25164283 </v>
    <v>       0.49867214       0.99999808       0.74875646 </v>
    <v>       0.51672647       0.49367367       0.25027194 </v>
    <v>       0.51012353       0.51409833       0.74992561 </v>
    <v>       0.00239127       0.99837397       0.50085109 </v>
    <v>       0.49971106       0.99952914       0.49709896 </v>
    <v>       0.25067567       0.25088674       0.99835210 </v>
    <v>       0.74982713       0.25002352       0.00123802 </v>
    <v>       0.25531377       0.77591343       0.24933862 </v>
    <v>       0.25854983       0.73437100       0.75011880 </v>
    <v>       0.75045509       0.75118954       0.24987043 </v>
    <v>       0.99081415       0.48594442       0.25016201 </v>
    <v>       0.10648477       0.14699835       0.24936969 </v>
    <v>       0.10742415       0.13493609       0.75213425 </v>
    <v>       0.10398713       0.64769860       0.74968515 </v>
    <v>       0.60616845       0.14840167       0.24946823 </v>
    <v>       0.60876780       0.14075137       0.75025306 </v>
    <v>       0.60000328       0.64490687       0.25041344 </v>
    <v>       0.60154636       0.64917266       0.74918166 </v>
    <v>       0.38920693       0.37206267       0.25114224 </v>
    <v>       0.39952236       0.85798782       0.24940264 </v>
    <v>       0.37751245       0.86720831       0.75010742 </v>
    <v>       0.89282046       0.35059905       0.25055957 </v>
    <v>       0.89109891       0.35576007       0.74981529 </v>
    <v>       0.89462123       0.86155082       0.24959695 </v>
    <v>       0.89831811       0.85114175       0.75040121 </v>
    <v>       0.35898295       0.11450836       0.25049229 </v>
    <v>       0.36416120       0.12151875       0.74896136 </v>
    <v>       0.35426504       0.59419252       0.75033728 </v>
    <v>       0.85443116       0.10435829       0.25044468 </v>
    <v>       0.85457364       0.10326273       0.74850821 </v>
    <v>       0.87039563       0.61369974       0.24974864 </v>
    <v>       0.85191905       0.60432006       0.75053910 </v>
    <v>       0.14689404       0.40288659       0.25047255 </v>
    <v>       0.14405020       0.39236721       0.74961791 </v>
    <v>       0.13977822       0.89513778       0.24863574 </v>
    <v>       0.64881885       0.39598627       0.25003321 </v>
    <v>       0.63557375       0.39205412       0.75007898 </v>
    <v>       0.64376753       0.89740749       0.24968055 </v>
    <v>       0.64047712       0.89194528       0.75040106 </v>
    <v>       0.36637206       0.38665582       0.00338671 </v>
    <v>       0.36454233       0.38561197       0.49612984 </v>
    <v>       0.36241139       0.88265407       0.01031985 </v>
    <v>       0.36235698       0.88071861       0.48944947 </v>
    <v>       0.86698501       0.38648570       0.00313818 </v>
    <v>       0.86544062       0.38618019       0.49667261 </v>
    <v>       0.86585122       0.88448712       0.99739793 </v>
    <v>       0.86583313       0.88374535       0.50246063 </v>
    <v>       0.13597703       0.11365676       0.99255624 </v>
    <v>       0.13706186       0.11677532       0.50800524 </v>
    <v>       0.13638382       0.61402905       0.99481865 </v>
    <v>       0.13630373       0.61270488       0.50464206 </v>
    <v>       0.63280933       0.11422206       0.99774519 </v>
    <v>       0.63468932       0.11710733       0.50235353 </v>
    <v>       0.63442670       0.61344927       0.99526237 </v>
    <v>       0.63439757       0.61187020       0.50574717 </v>
    <v>       0.11424985       0.36543726       0.99847684 </v>
    <v>       0.11397235       0.36440802       0.50149052 </v>
    <v>       0.11589945       0.86077120       0.01307720 </v>
    <v>       0.11743205       0.86022346       0.48729043 </v>
    <v>       0.61269644       0.36753129       0.00574503 </v>
    <v>       0.61278046       0.36577947       0.49479695 </v>
    <v>       0.61356764       0.86437680       0.99933191 </v>
    <v>       0.61543255       0.86352351       0.50105300 </v>
    <v>       0.38412884       0.13274057       0.99891840 </v>
    <v>       0.38256724       0.13510130       0.50144477 </v>
    <v>       0.38566895       0.63748966       0.99260169 </v>
    <v>       0.38580642       0.63547981       0.50740503 </v>
    <v>       0.88767107       0.13036375       0.98937250 </v>
    <v>       0.88523326       0.13421363       0.50907016 </v>
    <v>       0.88510230       0.63532215       0.99957547 </v>
    <v>       0.88517146       0.63431898       0.50060050 </v>
    <v>       0.99803396       0.00990285       0.12323590 </v>
    <v>       0.02562718       0.97776108       0.63429355 </v>
    <v>       0.00852143       0.50976776       0.12619040 </v>
    <v>       0.99652569       0.49805372       0.62556680 </v>
    <v>       0.50245405       0.00540680       0.12568437 </v>
    <v>       0.49714554       0.99596978       0.62529723 </v>
    <v>       0.49010237       0.51434301       0.12817451 </v>
    <v>       0.48958828       0.48188057       0.62976859 </v>
    <v>       0.99999378       0.00881207       0.37472180 </v>
    <v>       0.02264958       0.97690951       0.86808594 </v>
    <v>       0.00777703       0.50956038       0.37410186 </v>
    <v>       0.99699640       0.49849367       0.87404455 </v>
    <v>       0.50304291       0.00563468       0.37356330 </v>
    <v>       0.49566758       0.99531620       0.87561573 </v>
    <v>       0.49106121       0.51397157       0.37288439 </v>
    <v>       0.49136061       0.48420511       0.87022874 </v>
    <v>       0.24653805       0.24856163       0.37617770 </v>
    <v>       0.26662316       0.26543013       0.86828600 </v>
    <v>       0.24789791       0.71354738       0.36027991 </v>
    <v>       0.24201259       0.76506471       0.87470811 </v>
    <v>       0.75276576       0.24497175       0.37508737 </v>
    <v>       0.74796039       0.25410758       0.87339216 </v>
    <v>       0.74900891       0.74768661       0.37686465 </v>
    <v>       0.74807714       0.75086466       0.87359725 </v>
    <v>       0.24806554       0.24943975       0.12547968 </v>
    <v>       0.26356024       0.26502351       0.63003859 </v>
    <v>       0.24792432       0.71319516       0.13875086 </v>
    <v>       0.24293208       0.76312130       0.62534426 </v>
    <v>       0.75410152       0.24455320       0.12566966 </v>
    <v>       0.74698412       0.25660096       0.62554003 </v>
    <v>       0.74868860       0.74859710       0.12285506 </v>
    <v>       0.74932041       0.75040075       0.62696226 </v>
   </varray>
  </structure>
  <varray name="forces" >
   <v>       0.03198781      -0.01949586      -0.00276926 </v>
   <v>      -0.00855963       0.00322721       0.01430055 </v>
   <v>      -0.00776771       0.02698036      -0.00036161 </v>
   <v>       0.00262693      -0.00100760       0.03696454 </v>
   <v>      -0.00352508       0.00471287      -0.00276798 </v>
   <v>       0.01516836      -0.00218934       0.01516731 </v>
   <v>       0.02685258      -0.01065956       0.03581273 </v>
   <v>      -0.01691146      -0.00624156       0.00169771 </v>
   <v>       0.03622175      -0.01826676      -0.00935513 </v>
   <v>      -0.01051875       0.01203052      -0.00774173 </v>
   <v>      -0.01123084       0.02391665      -0.00336336 </v>
   <v>       0.00742179       0.00223044      -0.04123015 </v>
   <v>      -0.00263543       0.01159595      -0.00054378 </v>
   <v>       0.02057631       0.00809559      -0.02324881 </v>
   <v>       0.02730147      -0.01225365      -0.01403871 </v>
   <v>      -0.01470699      -0.00582289      -0.02676369 </v>
   <v>      -0.01312598       0.01314394      -0.00851263 </v>
   <v>       0.00241296      -0.01029690       0.02662718 </v>
   <v>      -0.00909563       0.01641314       0.01468291 </v>
   <v>       0.00168475       0.00649755       0.02758554 </v>
   <v>       0.00987432      -0.00023637       0.00137387 </v>
   <v>       0.00356261      -0.00175047       0.01852483 </v>
   <v>      -0.00298475       0.00311270       0.01837599 </v>
   <v>      -0.00376993      -0.00783405       0.02475608 </v>
   <v>      -0.00604431       0.01662816       0.00978253 </v>
   <v>       0.00654336      -0.00038662      -0.02164165 </v>
   <v>       0.00336132       0.00715122      -0.01424733 </v>
   <v>      -0.00252395      -0.00102169      -0.03228629 </v>
   <v>       0.00490388      -0.00824225       0.00686381 </v>
   <v>       0.00328957      -0.00115051      -0.02193075 </v>
   <v>      -0.00411459       0.00570592      -0.01713349 </v>
   <v>       0.00146657      -0.01862904      -0.01886493 </v>
   <v>       0.00849757       0.00172666       0.00167716 </v>
   <v>      -0.00892882      -0.02125178       0.01595646 </v>
   <v>       0.00308472      -0.00015857      -0.00007090 </v>
   <v>      -0.00730415      -0.00122214       0.00309911 </v>
   <v>       0.00281121      -0.02514373      -0.01303509 </v>
   <v>      -0.02328437       0.02397303       0.01302985 </v>
   <v>       0.01828164      -0.00301870       0.00115524 </v>
   <v>      -0.02431865       0.02082822      -0.00285963 </v>
   <v>       0.00301838      -0.01740511       0.00509611 </v>
   <v>      -0.00098061      -0.00560909       0.02552296 </v>
   <v>      -0.00190171       0.02552818       0.04521582 </v>
   <v>      -0.00648283      -0.00121768      -0.01693782 </v>
   <v>      -0.00312229       0.03387907       0.03947982 </v>
   <v>       0.00911643       0.03206081      -0.04452722 </v>
   <v>      -0.03528326      -0.01943752      -0.01235178 </v>
   <v>       0.01349375       0.00741555      -0.00803234 </v>
   <v>       0.00585898      -0.00149700      -0.01340201 </v>
   <v>      -0.01335415      -0.01845068      -0.01604066 </v>
   <v>      -0.06657927       0.03885979      -0.01087797 </v>
   <v>       0.03070267      -0.02833353      -0.01168313 </v>
   <v>      -0.01232481      -0.01343045      -0.00704864 </v>
   <v>      -0.05053487       0.01933834       0.03105552 </v>
   <v>       0.00408091      -0.02257085       0.02986092 </v>
   <v>       0.00866271      -0.05339759      -0.02542074 </v>
   <v>       0.00170608      -0.00445659       0.01297961 </v>
   <v>       0.00764618      -0.00807235      -0.00770910 </v>
   <v>       0.00048761       0.00227737      -0.02340744 </v>
   <v>       0.00441474      -0.00845953      -0.01836563 </v>
   <v>       0.02122693      -0.01639269       0.01584062 </v>
   <v>       0.01287253      -0.01313505      -0.01041871 </v>
   <v>       0.00537286      -0.00583677       0.00838789 </v>
   <v>       0.01867972      -0.00889806       0.00027761 </v>
   <v>      -0.00921740       0.01188171      -0.00938712 </v>
   <v>      -0.01657117      -0.00393232       0.01228297 </v>
   <v>       0.01603248       0.02646242       0.00088308 </v>
   <v>      -0.00948518       0.03366005       0.00335949 </v>
   <v>      -0.01785711       0.00257217      -0.00229456 </v>
   <v>      -0.01416850      -0.00136554      -0.00509252 </v>
   <v>       0.03485623       0.02751601       0.01010082 </v>
   <v>      -0.02286929      -0.00711407      -0.01066252 </v>
   <v>      -0.01906502      -0.01707761       0.00986821 </v>
   <v>      -0.01871411      -0.03280520      -0.01458671 </v>
   <v>       0.00006359      -0.02111082       0.00252615 </v>
   <v>       0.02460949       0.02882746       0.00485394 </v>
   <v>      -0.01007895       0.01064075       0.00174037 </v>
   <v>      -0.01068251       0.02655701      -0.00707361 </v>
   <v>      -0.01074553       0.03200612      -0.00860709 </v>
   <v>       0.00513831       0.00045854      -0.00232999 </v>
   <v>      -0.02905642      -0.00427791       0.00613656 </v>
   <v>      -0.01731831       0.00548264      -0.00185501 </v>
   <v>       0.01224726      -0.03850056       0.00055619 </v>
   <v>       0.01522255       0.00711800      -0.00328645 </v>
   <v>       0.01033194       0.05371174       0.00326049 </v>
   <v>      -0.00646358       0.00416333      -0.01121025 </v>
   <v>       0.01914040      -0.00268951       0.00300437 </v>
   <v>      -0.00471319      -0.00137186       0.00259551 </v>
   <v>       0.01862382      -0.02658559      -0.00718558 </v>
   <v>      -0.02375638       0.01414094       0.00606354 </v>
   <v>       0.02165110      -0.01673900       0.00277796 </v>
   <v>       0.01029446      -0.03728435      -0.00182333 </v>
   <v>      -0.00335825      -0.00759368       0.00733441 </v>
   <v>       0.01229190      -0.01115368      -0.00767743 </v>
   <v>       0.01049533      -0.01190552      -0.03369513 </v>
   <v>       0.01518369      -0.00194679       0.03265106 </v>
   <v>       0.01439920      -0.02369041      -0.00035885 </v>
   <v>      -0.00067937      -0.03651135       0.00017574 </v>
   <v>       0.01261610      -0.01090409      -0.00268432 </v>
   <v>       0.02046366      -0.00389094       0.00813135 </v>
   <v>      -0.00655528       0.01146294      -0.00017504 </v>
   <v>      -0.01220751       0.00902086       0.00169259 </v>
   <v>      -0.01047322       0.03470916       0.01516331 </v>
   <v>      -0.01005161       0.02458777      -0.01486798 </v>
   <v>       0.00323514       0.01686140       0.01376710 </v>
   <v>       0.00175310       0.02037020       0.00012004 </v>
   <v>      -0.03178895       0.00659256       0.00733049 </v>
   <v>      -0.02816022      -0.00830610      -0.00230541 </v>
   <v>       0.02983695       0.01676591      -0.01114632 </v>
   <v>       0.02498450       0.01469935       0.00551779 </v>
   <v>       0.03583811       0.01098394      -0.00236013 </v>
   <v>       0.01088546       0.01877886       0.00100208 </v>
   <v>       0.01007602       0.03453304       0.00180966 </v>
   <v>       0.03480941       0.01395356       0.00402285 </v>
   <v>       0.01829663       0.02008508       0.00004286 </v>
   <v>       0.00936881       0.02863291      -0.01371369 </v>
   <v>      -0.01401911      -0.01042914       0.00611567 </v>
   <v>      -0.01353529      -0.01639147      -0.01436439 </v>
   <v>      -0.02331475       0.00086832      -0.00498446 </v>
   <v>      -0.01733365      -0.01058754      -0.00223618 </v>
   <v>      -0.01562388       0.00136141      -0.00013153 </v>
   <v>       0.00526158       0.00671449       0.00032687 </v>
   <v>      -0.02957756      -0.02518060      -0.00587934 </v>
   <v>      -0.02243352      -0.02320006      -0.00453773 </v>
   <v>      -0.02032407      -0.01256393      -0.01850083 </v>
   <v>       0.01359506       0.00879736       0.03457177 </v>
   <v>      -0.00217041      -0.01192685      -0.00365776 </v>
   <v>       0.00689523       0.00028123      -0.02047053 </v>
   <v>      -0.00206742      -0.00367227      -0.01489084 </v>
   <v>       0.01519465      -0.00154697      -0.00015822 </v>
   <v>      -0.01345863      -0.01054147      -0.03733561 </v>
   <v>      -0.00270113      -0.01155672      -0.00112484 </v>
   <v>      -0.01631527      -0.01440683       0.01272723 </v>
   <v>       0.00535255       0.01107538      -0.02695617 </v>
   <v>       0.00114272      -0.01462209       0.01013408 </v>
   <v>       0.00963134       0.01102169       0.03025973 </v>
   <v>      -0.00304275      -0.00591068       0.02086782 </v>
   <v>       0.01856104       0.00498099       0.01224590 </v>
   <v>       0.00122024      -0.00273682       0.02160712 </v>
   <v>      -0.00569495       0.00027703       0.01901188 </v>
   <v>      -0.00260131      -0.01277184       0.02302933 </v>
   <v>       0.00793181      -0.00895894       0.00957390 </v>
   <v>       0.00307078       0.03566290      -0.04762908 </v>
   <v>      -0.00518928      -0.02518066       0.00460103 </v>
   <v>       0.00022683      -0.01690552       0.00022888 </v>
   <v>       0.00025026       0.01336359       0.01835551 </v>
   <v>      -0.01564601       0.00732708       0.02355305 </v>
   <v>      -0.00202019      -0.01314596      -0.02455345 </v>
   <v>       0.00614198      -0.00281402      -0.01064464 </v>
   <v>       0.00732888      -0.01004089       0.00129161 </v>
   <v>       0.01636998       0.01628824       0.01677997 </v>
   <v>      -0.00966288      -0.02030865       0.01105490 </v>
   <v>      -0.00734126      -0.01849969       0.01555345 </v>
   <v>       0.01336684       0.00217403      -0.03953308 </v>
   <v>      -0.01296758       0.00742467      -0.03162239 </v>
   <v>       0.00343342      -0.00864694       0.03076928 </v>
  </varray>
  <varray name="stress" >
   <v>       0.52861312      -0.01522603       0.04314279 </v>
   <v>      -0.01522610       0.50023329      -0.03686023 </v>
   <v>       0.04314259      -0.03685970      -0.14300235 </v>
  </varray>
  <energy>
   <i name="e_fr_energy">  -1120.41834084 </i>
   <i name="e_wo_entrp">  -1120.41834084 </i>
   <i name="e_0_energy">     -0.00000000 </i>
  </energy>
  <time name="totalsc"> 1982.94 1985.79</time>
 </calculation>
 <calculation>
  <scstep>
   <time name="dav">  560.55  560.77</time>
   <time name="total">  567.74  567.99</time>
   <energy>
    <i name="alphaZ">   5622.66556809 </i>
    <i name="ewald"> -61278.77476207 </i>
    <i name="hartreedc"> -16237.76314661 </i>
    <i name="XCdc">   2962.81760499 </i>
    <i name="pawpsdc"> 113135.07163779 </i>
    <i name="pawaedc">-112034.50374407 </i>
    <i name="eentropy">     -0.00000000 </i>
    <i name="bandstr">  -7073.38108684 </i>
    <i name="atom">  73783.44779670 </i>
    <i name="e_fr_energy">  -1120.42013202 </i>
    <i name="e_wo_entrp">  -1120.42013202 </i>
    <i name="e_0_energy">  -1120.42013202 </i>
   </energy>
  </scstep>
  <scstep>
   <time name="diag">   64.86   64.86</time>
   <time name="diis">  104.33  104.33</time>
   <time name="orth">   33.20   33.20</time>
   <time name="total">  209.62  209.63</time>
   <energy>
    <i name="e_fr_energy">  -1120.42210366 </i>
    <i name="e_wo_entrp">  -1120.42210366 </i>
    <i name="e_0_energy">  -1120.42210366 </i>
   </energy>
  </scstep>
  <scstep>
   <time name="diag">   64.74   64.78</time>
   <time name="diis">  107.95  107.98</time>
   <time name="orth">   33.19   33.19</time>
   <time name="total">  213.13  213.25</time>
   <energy>
    <i name="e_fr_energy">  -1120.42180492 </i>
    <i name="e_wo_entrp">  -1120.42180492 </i>
    <i name="e_0_energy">  -1120.42180492 </i>
   </energy>
  </scstep>
  <scstep>
   <time name="diag">   64.80   64.81</time>
   <time name="diis">  101.90  101.90</time>
   <time name="orth">   33.17   33.17</time>
   <time name="total">  207.13  207.21</time>
   <energy>
    <i name="e_fr_energy">  -1120.42156743 </i>
    <i name="e_wo_entrp">  -1120.42156743 </i>
    <i name="e_0_energy">  -1120.42156743 </i>
   </energy>
  </scstep>
  <scstep>
   <time name="diag">   64.78   64.78</time>
   <time name="diis">   71.82   71.82</time>
   <time name="orth">   33.23   33.23</time>
   <time name="total">  177.05  177.12</time>
   <energy>
    <i name="e_fr_energy">  -1120.42148688 </i>
    <i name="e_wo_entrp">  -1120.42148688 </i>
    <i name="e_0_energy">  -1120.42148688 </i>
   </energy>
  </scstep>
  <scstep>
   <time name="diag">   64.82   64.82</time>
   <time name="diis">   64.10   64.12</time>
   <time name="orth">   33.19   33.19</time>
   <time name="total">  169.39  169.51</time>
   <energy>
    <i name="e_fr_energy">  -1120.42148915 </i>
    <i name="e_wo_entrp">  -1120.42148915 </i>
    <i name="e_0_energy">  -1120.42148915 </i>
   </energy>
  </scstep>
  <scstep>
   <time name="diag">   64.67   64.69</time>
   <time name="diis">   63.47   63.50</time>
   <time name="orth">   33.29   33.30</time>
   <time name="total">  168.67  168.82</time>
   <energy>
    <i name="e_fr_energy">  -1120.42148859 </i>
    <i name="e_wo_entrp">  -1120.42148859 </i>
    <i name="e_0_energy">  -1120.42148859 </i>
   </energy>
  </scstep>
  <scstep>
   <time name="diag">   64.70   64.71</time>
   <time name="diis">   62.54   62.53</time>
   <time name="orth">   33.31   33.31</time>
   <time name="total">  161.59  161.67</time>
   <energy>
    <i name="alphaZ">   5622.66556809 </i>
    <i name="ewald"> -61278.77476207 </i>
    <i name="hartreedc"> -16242.65733425 </i>
    <i name="XCdc">   2963.14506547 </i>
    <i name="pawpsdc"> 113044.46435152 </i>
    <i name="pawaedc">-111943.87159499 </i>
    <i name="eentropy">     -0.00000000 </i>
    <i name="bandstr">  -7068.84057763 </i>
    <i name="atom">  73783.44779670 </i>
    <i name="e_fr_energy">  -1120.42148715 </i>
    <i name="e_wo_entrp">  -1120.42148715 </i>
    <i name="e_0_energy">  -1120.42148715 </i>
   </energy>
  </scstep>
  <structure>
   <crystal>
    <varray name="basis" >
     <v>      11.23884440      -0.00007564      -0.00004753 </v>
     <v>      -0.00006715      11.24697819       0.00113620 </v>
     <v>      -0.00007412       0.00161288      15.87872095 </v>
    </varray>
    <i name="volume">   2007.11854568 </i>
    <varray name="rec_basis" >
     <v>       0.08897712       0.00000053       0.00000042 </v>
     <v>       0.00000060       0.08891277      -0.00000903 </v>
     <v>       0.00000027      -0.00000636       0.06297737 </v>
    </varray>
   </crystal>
   <varray name="positions" >
    <v>       0.99870931       0.24785923       0.12058761 </v>
    <v>       0.99514474       0.25544035       0.62069781 </v>
    <v>       0.99188271       0.74885604       0.12428054 </v>
    <v>       0.00098552       0.74811346       0.61797963 </v>
    <v>       0.49696363       0.24730674       0.12315099 </v>
    <v>       0.50452101       0.24224206       0.61658547 </v>
    <v>       0.50435245       0.75256799       0.12220092 </v>
    <v>       0.49954546       0.75988221       0.62022217 </v>
    <v>       0.99870958       0.24528948       0.37853265 </v>
    <v>       0.99471811       0.25773174       0.88048059 </v>
    <v>       0.99164662       0.75093432       0.37688500 </v>
    <v>       0.00090218       0.74565181       0.88142562 </v>
    <v>       0.49754180       0.24445174       0.37656915 </v>
    <v>       0.50470655       0.24494763       0.88437598 </v>
    <v>       0.50418041       0.75451337       0.37846855 </v>
    <v>       0.49969153       0.75843078       0.87872054 </v>
    <v>       0.24801312       0.01291756       0.12292111 </v>
    <v>       0.25978101       0.99735223       0.61616474 </v>
    <v>       0.24655414       0.48845068       0.11793785 </v>
    <v>       0.24722846       0.49960116       0.62015221 </v>
    <v>       0.75081775       0.99854106       0.12348219 </v>
    <v>       0.74096294       0.99944275       0.61827397 </v>
    <v>       0.75639309       0.50355265       0.12207155 </v>
    <v>       0.75508434       0.49856199       0.62082481 </v>
    <v>       0.24782506       0.00934799       0.37744443 </v>
    <v>       0.25891804       0.00003167       0.88257692 </v>
    <v>       0.24700138       0.49013046       0.38102213 </v>
    <v>       0.24741765       0.49725315       0.88051448 </v>
    <v>       0.75062479       0.99715516       0.37735844 </v>
    <v>       0.74173028       0.00215892       0.88067580 </v>
    <v>       0.75646383       0.50577547       0.37693917 </v>
    <v>       0.75452938       0.49701428       0.88034077 </v>
    <v>       0.00201816       0.00113881       0.99974022 </v>
    <v>       0.00086882       0.49834846       0.00238540 </v>
    <v>       0.00050338       0.50050814       0.49762130 </v>
    <v>       0.49985653       0.00234118       0.00313465 </v>
    <v>       0.49849459       0.49790354       0.00052450 </v>
    <v>       0.49915013       0.49982782       0.49984874 </v>
    <v>       0.25042928       0.24840271       0.50097879 </v>
    <v>       0.24868927       0.74843614       0.00074536 </v>
    <v>       0.24878398       0.74971189       0.49897612 </v>
    <v>       0.75042017       0.24692653       0.49858670 </v>
    <v>       0.74952371       0.74984791       0.00025927 </v>
    <v>       0.74973280       0.75233074       0.49972365 </v>
    <v>       0.24663880       0.25333832       0.24854555 </v>
    <v>       0.23520269       0.24001944       0.75052469 </v>
    <v>       0.75352489       0.24286246       0.24800504 </v>
    <v>       0.74484435       0.25544810       0.75096675 </v>
    <v>       0.75454762       0.75242611       0.75003412 </v>
    <v>       0.99741842       0.00058003       0.25177982 </v>
    <v>       0.98348105       0.00192484       0.74990043 </v>
    <v>       0.99995632       0.50306234       0.74987647 </v>
    <v>       0.50521529       0.00197055       0.25162142 </v>
    <v>       0.49845517       0.00008103       0.74885080 </v>
    <v>       0.51674399       0.49357682       0.25036266 </v>
    <v>       0.51016072       0.51386926       0.74984840 </v>
    <v>       0.00239860       0.99835484       0.50089052 </v>
    <v>       0.49974389       0.99949451       0.49707554 </v>
    <v>       0.25067776       0.25089653       0.99828099 </v>
    <v>       0.74984608       0.24998724       0.00118223 </v>
    <v>       0.25540491       0.77584309       0.24938675 </v>
    <v>       0.25860509       0.73431465       0.75008715 </v>
    <v>       0.75047815       0.75116450       0.24989591 </v>
    <v>       0.99089435       0.48590624       0.25016285 </v>
    <v>       0.10644520       0.14704933       0.24934117 </v>
    <v>       0.10735301       0.13491922       0.75217157 </v>
    <v>       0.10405596       0.64781213       0.74968783 </v>
    <v>       0.60612773       0.14854608       0.24947842 </v>
    <v>       0.60869113       0.14076241       0.75024609 </v>
    <v>       0.59994245       0.64490101       0.25039796 </v>
    <v>       0.60169601       0.64929070       0.74921234 </v>
    <v>       0.38910874       0.37203216       0.25110985 </v>
    <v>       0.39944051       0.85791455       0.24943262 </v>
    <v>       0.37743210       0.86706758       0.75006311 </v>
    <v>       0.89282073       0.35050848       0.25056725 </v>
    <v>       0.89120457       0.35588375       0.74983003 </v>
    <v>       0.89457795       0.86159647       0.24960223 </v>
    <v>       0.89827225       0.85125569       0.75037971 </v>
    <v>       0.35893682       0.11464568       0.25046613 </v>
    <v>       0.36418326       0.12152072       0.74895428 </v>
    <v>       0.35414029       0.59417417       0.75035592 </v>
    <v>       0.85435680       0.10438182       0.25043904 </v>
    <v>       0.85462622       0.10309755       0.74850991 </v>
    <v>       0.87046099       0.61373028       0.24973866 </v>
    <v>       0.85196341       0.60455049       0.75054899 </v>
    <v>       0.14686629       0.40290446       0.25043849 </v>
    <v>       0.14413238       0.39235567       0.74962704 </v>
    <v>       0.13975798       0.89513190       0.24864362 </v>
    <v>       0.64889881       0.39587222       0.25001139 </v>
    <v>       0.63547175       0.39211478       0.75009740 </v>
    <v>       0.64386049       0.89733568       0.24968899 </v>
    <v>       0.64052131       0.89178532       0.75039553 </v>
    <v>       0.36635764       0.38662324       0.00340899 </v>
    <v>       0.36459510       0.38556413       0.49610652 </v>
    <v>       0.36245645       0.88260301       0.01021749 </v>
    <v>       0.36242217       0.88071024       0.48954867 </v>
    <v>       0.86704683       0.38638406       0.00313710 </v>
    <v>       0.86543770       0.38602354       0.49667316 </v>
    <v>       0.86590539       0.88444034       0.99738978 </v>
    <v>       0.86592099       0.88372865       0.50248533 </v>
    <v>       0.13594888       0.11370594       0.99255570 </v>
    <v>       0.13700944       0.11681402       0.50801038 </v>
    <v>       0.13633886       0.61417795       0.99486470 </v>
    <v>       0.13626057       0.61281038       0.50459688 </v>
    <v>       0.63282323       0.11429439       0.99778701 </v>
    <v>       0.63469685       0.11719472       0.50235389 </v>
    <v>       0.63429022       0.61347755       0.99528463 </v>
    <v>       0.63427667       0.61183457       0.50574017 </v>
    <v>       0.11437795       0.36550920       0.99844298 </v>
    <v>       0.11407962       0.36447108       0.50150728 </v>
    <v>       0.11605331       0.86081832       0.01307003 </v>
    <v>       0.11747879       0.86030403       0.48729347 </v>
    <v>       0.61273970       0.36767944       0.00575052 </v>
    <v>       0.61292991       0.36583933       0.49480917 </v>
    <v>       0.61364619       0.86446297       0.99933203 </v>
    <v>       0.61547277       0.86364636       0.50101132 </v>
    <v>       0.38406865       0.13269583       0.99893699 </v>
    <v>       0.38250913       0.13503099       0.50140114 </v>
    <v>       0.38556885       0.63749339       0.99258654 </v>
    <v>       0.38573200       0.63543439       0.50739824 </v>
    <v>       0.88760399       0.13036959       0.98937210 </v>
    <v>       0.88525585       0.13424244       0.50907115 </v>
    <v>       0.88497532       0.63521413       0.99955762 </v>
    <v>       0.88507514       0.63421945       0.50058672 </v>
    <v>       0.99794670       0.00984896       0.12317970 </v>
    <v>       0.02568555       0.97779880       0.63439858 </v>
    <v>       0.00851212       0.50971659       0.12617929 </v>
    <v>       0.99655530       0.49805494       0.62550461 </v>
    <v>       0.50244518       0.00539105       0.12563913 </v>
    <v>       0.49721077       0.99596314       0.62529675 </v>
    <v>       0.49004459       0.51429780       0.12806108 </v>
    <v>       0.48957668       0.48183099       0.62976517 </v>
    <v>       0.99992373       0.00875025       0.37476047 </v>
    <v>       0.02267256       0.97695704       0.86800404 </v>
    <v>       0.00778193       0.50949764       0.37413265 </v>
    <v>       0.99703775       0.49854094       0.87413647 </v>
    <v>       0.50302985       0.00560932       0.37362670 </v>
    <v>       0.49574727       0.99533756       0.87565294 </v>
    <v>       0.49106645       0.51395982       0.37295004 </v>
    <v>       0.49133616       0.48420629       0.87028650 </v>
    <v>       0.24652688       0.24850683       0.37624767 </v>
    <v>       0.26665721       0.26539169       0.86831509 </v>
    <v>       0.24791109       0.71370040       0.36013520 </v>
    <v>       0.24199031       0.76495668       0.87472209 </v>
    <v>       0.75276674       0.24489922       0.37508807 </v>
    <v>       0.74796147       0.25416491       0.87344792 </v>
    <v>       0.74894174       0.74771803       0.37693620 </v>
    <v>       0.74806846       0.75080827       0.87352266 </v>
    <v>       0.24809191       0.24942768       0.12544735 </v>
    <v>       0.26359171       0.26498043       0.63004252 </v>
    <v>       0.24799461       0.71326503       0.13880183 </v>
    <v>       0.24289060       0.76303417       0.62537785 </v>
    <v>       0.75407000       0.24447382       0.12571692 </v>
    <v>       0.74704151       0.25661031       0.62541993 </v>
    <v>       0.74863293       0.74862897       0.12275899 </v>
    <v>       0.74933516       0.75036364       0.62705574 </v>
   </varray>
  </structure>
  <varray name="forces" >
   <v>       0.02710959      -0.01559523       0.00081604 </v>
   <v>      -0.00454146      -0.00235952      -0.00714331 </v>
   <v>       0.00017234       0.01365035      -0.01113169 </v>
   <v>      -0.00316816       0.00364796       0.03461233 </v>
   <v>      -0.00905040       0.00580675      -0.01048327 </v>
   <v>       0.01667576      -0.01210781      -0.00008333 </v>
   <v>       0.01533587      -0.01866086       0.01113747 </v>
   <v>      -0.00632767       0.00687879       0.00989452 </v>
   <v>       0.01559596      -0.02073342      -0.00623111 </v>
   <v>       0.00089450       0.00301839       0.01207330 </v>
   <v>      -0.00245290       0.02278873       0.00288389 </v>
   <v>      -0.00415173      -0.00205108      -0.03492805 </v>
   <v>       0.00821463       0.00452157       0.00581329 </v>
   <v>       0.00918011       0.00629551      -0.00456014 </v>
   <v>       0.02227877      -0.00331763      -0.01012821 </v>
   <v>      -0.00494660      -0.01670484      -0.01093971 </v>
   <v>      -0.00897517       0.01538758      -0.00640566 </v>
   <v>      -0.00166366      -0.01272205       0.01599694 </v>
   <v>      -0.00000320       0.01787755      -0.00664024 </v>
   <v>      -0.00748937       0.01375329       0.01067436 </v>
   <v>       0.00721666       0.00767826      -0.00491250 </v>
   <v>      -0.00698146      -0.01665540       0.01198582 </v>
   <v>      -0.00263237      -0.00298112       0.00490430 </v>
   <v>       0.00226857       0.00842355       0.01096578 </v>
   <v>      -0.00893385       0.00977668       0.01027200 </v>
   <v>      -0.00614497       0.00047644      -0.01442287 </v>
   <v>      -0.00247900       0.01062103      -0.00656275 </v>
   <v>      -0.00129921       0.01177200      -0.00310469 </v>
   <v>       0.00803692       0.00705635       0.00876917 </v>
   <v>      -0.00320255      -0.01875726      -0.00952523 </v>
   <v>       0.00575510      -0.01257828      -0.00378715 </v>
   <v>       0.00186161       0.01198834      -0.00219072 </v>
   <v>       0.00385895       0.00427839      -0.02921911 </v>
   <v>       0.00077285       0.00704412       0.00849619 </v>
   <v>      -0.01448102      -0.00693914      -0.01175698 </v>
   <v>      -0.00929742      -0.00474502      -0.00035456 </v>
   <v>      -0.00922807       0.02576279      -0.00204669 </v>
   <v>       0.02861604      -0.02512705       0.00435654 </v>
   <v>      -0.00747079      -0.00501491       0.00273791 </v>
   <v>       0.03413671      -0.03745540      -0.01299528 </v>
   <v>      -0.01000736       0.02414512       0.00958894 </v>
   <v>      -0.00151633       0.00682508      -0.03742006 </v>
   <v>      -0.00297141      -0.01417754      -0.05504216 </v>
   <v>       0.00493372       0.00715954       0.03683232 </v>
   <v>      -0.01580055      -0.00054686      -0.01301981 </v>
   <v>      -0.03483631      -0.03136409       0.05145284 </v>
   <v>       0.01165185      -0.00615299       0.00690987 </v>
   <v>      -0.00624662      -0.00972333       0.00164556 </v>
   <v>      -0.00762860       0.01089752       0.02311063 </v>
   <v>      -0.00354117       0.00816152       0.00646350 </v>
   <v>       0.04369874      -0.04209894       0.00809207 </v>
   <v>       0.00491889       0.04626298       0.02543113 </v>
   <v>      -0.01812215       0.00558147       0.00223678 </v>
   <v>      -0.00578989      -0.02538220      -0.01380344 </v>
   <v>       0.01319196      -0.01439228      -0.02876384 </v>
   <v>       0.01745571       0.07468334       0.02840907 </v>
   <v>       0.00122575       0.00221969       0.01357201 </v>
   <v>       0.00664738      -0.00281933       0.00777773 </v>
   <v>       0.00812638       0.01016942      -0.00985610 </v>
   <v>       0.00050201      -0.00752721       0.01707194 </v>
   <v>      -0.01410321       0.00406982      -0.01902886 </v>
   <v>      -0.00221386      -0.00704991       0.01240739 </v>
   <v>       0.00913994      -0.00444012      -0.00279427 </v>
   <v>      -0.00938406      -0.02884542      -0.00231194 </v>
   <v>      -0.00667379       0.00851153      -0.00447344 </v>
   <v>       0.02859511       0.04762148       0.00219013 </v>
   <v>      -0.00472775      -0.00498604      -0.00385709 </v>
   <v>      -0.04320928      -0.00567999       0.00449551 </v>
[...]
       <r>   -16.2298     0.0000    32.0000 </r>
       <r>   -16.0776     0.0000    32.0000 </r>
       <r>   -15.9254     0.0000    32.0000 </r>
       <r>   -15.7731     0.0000    32.0000 </r>
       <r>   -15.6209     0.0000    32.0000 </r>
       <r>   -15.4687     0.0000    32.0000 </r>
       <r>   -15.3165     0.0011    32.0002 </r>
       <r>   -15.1642     5.2406    32.7979 </r>
       <r>   -15.0120    22.8310    36.2734 </r>
       <r>   -14.8598    47.8305    43.5543 </r>
       <r>   -14.7076    47.9726    50.8570 </r>
       <r>   -14.5553    38.6273    56.7370 </r>
       <r>   -14.4031    33.5109    61.8382 </r>
       <r>   -14.2509    34.8860    67.1487 </r>
       <r>   -14.0987    89.6971    80.8028 </r>
       <r>   -13.9464   114.6755    98.2593 </r>
       <r>   -13.7942   100.2131   113.5142 </r>
       <r>   -13.6420    60.4793   122.7207 </r>
       <r>   -13.4898     2.9921   123.1761 </r>
       <r>   -13.3375     5.4098   123.9996 </r>
       <r>   -13.1853     0.0024   124.0000 </r>
       <r>   -13.0331     0.0000   124.0000 </r>
       <r>   -12.8809     0.0000   124.0000 </r>
       <r>   -12.7286     0.4224   124.0643 </r>
       <r>   -12.5764    47.4405   131.2859 </r>
       <r>   -12.4242   143.9241   153.1947 </r>
       <r>   -12.2720   138.7598   174.3174 </r>
       <r>   -12.1197   125.5850   193.4346 </r>
       <r>   -11.9675   113.6871   210.7406 </r>
       <r>   -11.8153    49.6370   218.2965 </r>
       <r>   -11.6631    11.1791   219.9983 </r>
       <r>   -11.5108     0.0113   220.0000 </r>
       <r>   -11.3586     0.0000   220.0000 </r>
       <r>   -11.2064     0.0000   220.0000 </r>
       <r>   -11.0542     0.0000   220.0000 </r>
       <r>   -10.9019     0.0000   220.0000 </r>
       <r>   -10.7497     0.0000   220.0000 </r>
       <r>   -10.5975     0.0000   220.0000 </r>
       <r>   -10.4453     0.0000   220.0000 </r>
       <r>   -10.2930     0.0000   220.0000 </r>
       <r>   -10.1408     0.0000   220.0000 </r>
       <r>    -9.9886     0.0000   220.0000 </r>
       <r>    -9.8364     0.0000   220.0000 </r>
       <r>    -9.6841     0.0000   220.0000 </r>
       <r>    -9.5319     0.0000   220.0000 </r>
       <r>    -9.3797     0.0000   220.0000 </r>
       <r>    -9.2275     0.0000   220.0000 </r>
       <r>    -9.0752     0.0000   220.0000 </r>
       <r>    -8.9230     0.0000   220.0000 </r>
       <r>    -8.7708     0.0000   220.0000 </r>
       <r>    -8.6186     0.0000   220.0000 </r>
       <r>    -8.4663     0.0000   220.0000 </r>
       <r>    -8.3141     0.0000   220.0000 </r>
       <r>    -8.1619     0.0000   220.0000 </r>
       <r>    -8.0097     0.0000   220.0000 </r>
       <r>    -7.8574     0.0000   220.0000 </r>
       <r>    -7.7052     0.0000   220.0000 </r>
       <r>    -7.5530     0.0000   220.0000 </r>
       <r>    -7.4008     0.0000   220.0000 </r>
       <r>    -7.2485     0.0000   220.0000 </r>
       <r>    -7.0963     0.0000   220.0000 </r>
       <r>    -6.9441     0.0000   220.0000 </r>
       <r>    -6.7919     0.0000   220.0000 </r>
       <r>    -6.6396     0.0000   220.0000 </r>
       <r>    -6.4874     0.0000   220.0000 </r>
       <r>    -6.3352     0.0000   220.0000 </r>
       <r>    -6.1830     0.0000   220.0000 </r>
       <r>    -6.0307     0.0000   220.0000 </r>
       <r>    -5.8785     0.0000   220.0000 </r>
       <r>    -5.7263     0.0000   220.0000 </r>
       <r>    -5.5741     0.0000   220.0000 </r>
       <r>    -5.4218     0.0000   220.0000 </r>
       <r>    -5.2696     0.0000   220.0000 </r>
       <r>    -5.1174     0.0000   220.0000 </r>
       <r>    -4.9652     0.0000   220.0000 </r>
       <r>    -4.8129     0.0000   220.0000 </r>
       <r>    -4.6607     0.0000   220.0000 </r>
       <r>    -4.5085     0.0000   220.0000 </r>
       <r>    -4.3563     0.0000   220.0000 </r>
       <r>    -4.2040     0.0000   220.0000 </r>
       <r>    -4.0518     0.0000   220.0000 </r>
       <r>    -3.8996     0.0000   220.0000 </r>
       <r>    -3.7474     0.0000   220.0000 </r>
       <r>    -3.5951     0.0000   220.0000 </r>
       <r>    -3.4429     0.0000   220.0000 </r>
       <r>    -3.2907     0.0000   220.0000 </r>
       <r>    -3.1385     0.0000   220.0000 </r>
       <r>    -2.9862     0.0000   220.0000 </r>
       <r>    -2.8340     0.0000   220.0000 </r>
       <r>    -2.6818     0.0000   220.0000 </r>
       <r>    -2.5296     0.0000   220.0000 </r>
       <r>    -2.3773     1.5299   220.2329 </r>
       <r>    -2.2251    16.0140   222.6706 </r>
       <r>    -2.0729    25.8759   226.6096 </r>
       <r>    -1.9207    20.7864   229.7738 </r>
       <r>    -1.7685    42.5461   236.2504 </r>
       <r>    -1.6162    53.7455   244.4318 </r>
       <r>    -1.4640    53.0279   252.5039 </r>
       <r>    -1.3118    58.6171   261.4269 </r>
       <r>    -1.1596    70.7429   272.1957 </r>
       <r>    -1.0073    76.7556   283.8798 </r>
       <r>    -0.8551    74.9409   295.2877 </r>
       <r>    -0.7029    86.1872   308.4075 </r>
       <r>    -0.5507   101.0138   323.7843 </r>
       <r>    -0.3984   106.6376   340.0172 </r>
       <r>    -0.2462    76.2474   351.6240 </r>
       <r>    -0.0940    51.5417   359.4699 </r>
       <r>     0.0582    50.1719   367.1073 </r>
       <r>     0.2105    47.4830   374.3354 </r>
       <r>     0.3627    49.1972   381.8244 </r>
       <r>     0.5149    51.0325   389.5928 </r>
       <r>     0.6671    53.7643   397.7771 </r>
       <r>     0.8194    48.9117   405.2227 </r>
       <r>     0.9716    52.0205   413.1415 </r>
       <r>     1.1238    64.9834   423.0336 </r>
       <r>     1.2760    82.4295   435.5814 </r>
       <r>     1.4283    88.0327   448.9821 </r>
       <r>     1.5805    85.6883   462.0260 </r>
       <r>     1.7327    80.0750   474.2154 </r>
       <r>     1.8849    61.1403   483.5225 </r>
       <r>     2.0372    33.5853   488.6350 </r>
       <r>     2.1894    35.8353   494.0900 </r>
       <r>     2.3416    11.6050   495.8566 </r>
       <r>     2.4938     0.9420   496.0000 </r>
       <r>     2.6461     0.0000   496.0000 </r>
       <r>     2.7983     0.0000   496.0000 </r>
       <r>     2.9505     0.0000   496.0000 </r>
       <r>     3.1027     0.0000   496.0000 </r>
       <r>     3.2550     0.0000   496.0000 </r>
       <r>     3.4072     0.0000   496.0000 </r>
       <r>     3.5594     0.0000   496.0000 </r>
       <r>     3.7116     0.0000   496.0000 </r>
       <r>     3.8639     0.0000   496.0000 </r>
       <r>     4.0161     0.0000   496.0000 </r>
       <r>     4.1683     0.0000   496.0000 </r>
       <r>     4.3205     0.0053   496.0008 </r>
       <r>     4.4728     6.0636   496.9238 </r>
       <r>     4.6250    19.8270   499.9420 </r>
       <r>     4.7772    45.0064   506.7931 </r>
       <r>     4.9294    35.7837   512.2403 </r>
       <r>     5.0817    38.9561   518.1704 </r>
       <r>     5.2339    65.8943   528.2011 </r>
       <r>     5.3861    68.0648   538.5623 </r>
       <r>     5.5383    61.0969   547.8627 </r>
       <r>     5.6906    68.1697   558.2398 </r>
       <r>     5.8428    70.2379   568.9318 </r>
       <r>     5.9950    84.4346   581.7848 </r>
       <r>     6.1472    88.7939   595.3015 </r>
       <r>     6.2995    63.4004   604.9526 </r>
       <r>     6.4517    46.1157   611.9725 </r>
       <r>     6.6039    12.0900   613.8129 </r>
       <r>     6.7561    22.1191   617.1800 </r>
       <r>     6.9084    21.2767   620.4188 </r>
       <r>     7.0606    19.6903   623.4162 </r>
       <r>     7.2128    20.5405   626.5430 </r>
       <r>     7.3650    17.9940   629.2821 </r>
       <r>     7.5173    13.0297   631.2655 </r>
       <r>     7.6695    14.1840   633.4247 </r>
       <r>     7.8217    19.5484   636.4004 </r>
       <r>     7.9739    19.9340   639.4349 </r>
       <r>     8.1262    25.7982   643.3620 </r>
       <r>     8.2784    26.9328   647.4619 </r>
       <r>     8.4306    23.9630   651.1096 </r>
       <r>     8.5828    25.4782   654.9880 </r>
       <r>     8.7351    20.3245   658.0819 </r>
       <r>     8.8873    24.8284   661.8614 </r>
       <r>     9.0395    38.1099   667.6627 </r>
       <r>     9.1917    40.1298   673.7714 </r>
       <r>     9.3440    39.8100   679.8315 </r>
       <r>     9.4962    42.9643   686.3717 </r>
       <r>     9.6484    41.0535   692.6211 </r>
       <r>     9.8006    54.2523   700.8797 </r>
       <r>     9.9529    64.8350   710.7491 </r>
       <r>    10.1051    68.9657   721.2474 </r>
       <r>    10.2573    62.4201   730.7493 </r>
       <r>    10.4095    59.0769   739.7423 </r>
       <r>    10.5618    61.7438   749.1412 </r>
       <r>    10.7140    53.7067   757.3167 </r>
       <r>    10.8662    51.0467   765.0873 </r>
       <r>    11.0184    19.1206   767.9979 </r>
       <r>    11.1707     0.0136   768.0000 </r>
       <r>    11.3229     0.0000   768.0000 </r>
       <r>    11.4751     0.0000   768.0000 </r>
       <r>    11.6273     0.0000   768.0000 </r>
       <r>    11.7796     0.0000   768.0000 </r>
       <r>    11.9318     0.0000   768.0000 </r>
       <r>    12.0840     0.0000   768.0000 </r>
       <r>    12.2362     0.0000   768.0000 </r>
       <r>    12.3885     0.0000   768.0000 </r>
       <r>    12.5407     0.0000   768.0000 </r>
       <r>    12.6929     0.0000   768.0000 </r>
       <r>    12.8451     0.0000   768.0000 </r>
       <r>    12.9974     0.0000   768.0000 </r>
      </set>
     </set>
    </array>
   </total>
  </dos>
 </calculation>
 <structure name="finalpos" >
  <crystal>
   <varray name="basis" >
    <v>      11.24086792      -0.00109623       0.00032053 </v>
    <v>      -0.00108853      11.24849031       0.00164882 </v>
    <v>       0.00044580       0.00233710      15.87334621 </v>
   </varray>
   <i name="volume">   2007.07018030 </i>
   <varray name="rec_basis" >
    <v>       0.08896110       0.00000861      -0.00000250 </v>
    <v>       0.00000867       0.08890082      -0.00001309 </v>
    <v>      -0.00000180      -0.00000923       0.06299869 </v>
   </varray>
  </crystal>
  <varray name="positions" >
   <v>       0.99958810       0.24740381       0.12041809 </v>
   <v>       0.99493239       0.25587950       0.62038426 </v>
   <v>       0.99177166       0.74966623       0.12375168 </v>
   <v>       0.00075486       0.74787740       0.61875624 </v>
   <v>       0.49658634       0.24747008       0.12288864 </v>
   <v>       0.50512373       0.24178510       0.61658893 </v>
   <v>       0.50532755       0.75212979       0.12262726 </v>
   <v>       0.49913639       0.76000047       0.61992116 </v>
   <v>       0.99956224       0.24457410       0.37856540 </v>
   <v>       0.99445952       0.25827178       0.88074974 </v>
   <v>       0.99154395       0.75183783       0.37722295 </v>
   <v>       0.00056527       0.74528327       0.88071714 </v>
   <v>       0.49746601       0.24461744       0.37685118 </v>
   <v>       0.50528242       0.24517830       0.88422068 </v>
   <v>       0.50534285       0.75427092       0.37825235 </v>
   <v>       0.49938458       0.75824937       0.87872423 </v>
   <v>       0.24787841       0.01350202       0.12251801 </v>
   <v>       0.25983134       0.99692217       0.61639038 </v>
   <v>       0.24656932       0.48903467       0.11786788 </v>
   <v>       0.24695348       0.49997898       0.62002545 </v>
   <v>       0.75093248       0.99850156       0.12324599 </v>
   <v>       0.74040492       0.99909737       0.61855244 </v>
   <v>       0.75651027       0.50333194       0.12207749 </v>
   <v>       0.75532205       0.49866389       0.62091808 </v>
   <v>       0.24791959       0.00970258       0.37794029 </v>
   <v>       0.25883867       0.00006269       0.88240695 </v>
   <v>       0.24713665       0.49067356       0.38110526 </v>
   <v>       0.24716702       0.49761468       0.88062602 </v>
   <v>       0.75072964       0.99699413       0.37776676 </v>
   <v>       0.74109785       0.00172517       0.88059290 </v>
   <v>       0.75675667       0.50548533       0.37696607 </v>
   <v>       0.75472040       0.49706389       0.88040624 </v>
   <v>       0.00209952       0.00112533       0.99932801 </v>
   <v>       0.00094500       0.49836791       0.00258887 </v>
   <v>       0.00059189       0.50045946       0.49743842 </v>
   <v>       0.49970620       0.00223202       0.00313085 </v>
   <v>       0.49840244       0.49799572       0.00043047 </v>
   <v>       0.49922190       0.49961368       0.49995389 </v>
   <v>       0.25063063       0.24852041       0.50121074 </v>
   <v>       0.24883658       0.74847998       0.00062078 </v>
   <v>       0.24873807       0.74978469       0.49899068 </v>
   <v>       0.75064131       0.24684499       0.49848103 </v>
   <v>       0.74941753       0.74974111       0.00009405 </v>
   <v>       0.74977127       0.75213596       0.49995088 </v>
   <v>       0.24654694       0.25355176       0.24856951 </v>
   <v>       0.23509782       0.24027823       0.75053705 </v>
   <v>       0.75336213       0.24237878       0.24794993 </v>
   <v>       0.74487474       0.25546713       0.75092745 </v>
   <v>       0.75419239       0.75265404       0.75008891 </v>
   <v>       0.99717000       0.00064501       0.25173659 </v>
   <v>       0.98312342       0.00268581       0.74999420 </v>
   <v>       0.00015526       0.50308227       0.74989519 </v>
   <v>       0.50510274       0.00218676       0.25177032 </v>
   <v>       0.49796148       0.00013564       0.74891393 </v>
   <v>       0.51672841       0.49313480       0.25034059 </v>
   <v>       0.51004758       0.51354704       0.74982556 </v>
   <v>       0.00245597       0.99838206       0.50131079 </v>
   <v>       0.49978607       0.99947534       0.49722674 </v>
   <v>       0.25093875       0.25117121       0.99796847 </v>
   <v>       0.74997591       0.24972962       0.00117172 </v>
   <v>       0.25545755       0.77648993       0.24935448 </v>
   <v>       0.25874283       0.73380311       0.75009283 </v>
   <v>       0.75081416       0.75118386       0.24993867 </v>
   <v>       0.99074587       0.48542583       0.25019224 </v>
   <v>       0.10583048       0.14714882       0.24920499 </v>
   <v>       0.10664500       0.13629908       0.75231830 </v>
   <v>       0.10415420       0.64797266       0.74963667 </v>
   <v>       0.60511170       0.14902132       0.24954410 </v>
   <v>       0.60852431       0.14099919       0.75019174 </v>
   <v>       0.59997109       0.64449928       0.25034126 </v>
   <v>       0.60199748       0.64840227       0.74926608 </v>
   <v>       0.38852215       0.37234663       0.25120149 </v>
   <v>       0.39963120       0.85822696       0.24972837 </v>
   <v>       0.37737053       0.86678043       0.74991820 </v>
   <v>       0.89273256       0.34988225       0.25063470 </v>
   <v>       0.89134339       0.35642032       0.74990186 </v>
   <v>       0.89416307       0.86156612       0.24952201 </v>
   <v>       0.89734286       0.85236943       0.75026732 </v>
   <v>       0.35869598       0.11502760       0.25047407 </v>
   <v>       0.36376642       0.12096574       0.74882678 </v>
   <v>       0.35416468       0.59356629       0.75032700 </v>
   <v>       0.85371738       0.10379404       0.25047160 </v>
   <v>       0.85364512       0.10343968       0.74849288 </v>
   <v>       0.87083350       0.61392195       0.24971990 </v>
   <v>       0.85328860       0.60562088       0.75051196 </v>
   <v>       0.14691863       0.40307011       0.25041817 </v>
   <v>       0.14481710       0.39286856       0.74966776 </v>
   <v>       0.13931626       0.89526801       0.24848802 </v>
   <v>       0.64892728       0.39562971       0.24999158 </v>
   <v>       0.63540528       0.39186389       0.75009955 </v>
   <v>       0.64359081       0.89740746       0.24977467 </v>
   <v>       0.63992328       0.89126713       0.75035697 </v>
   <v>       0.36699663       0.38604638       0.00351785 </v>
   <v>       0.36559751       0.38454688       0.49570485 </v>
   <v>       0.36335825       0.88206443       0.00908077 </v>
   <v>       0.36325019       0.88005494       0.49061934 </v>
   <v>       0.86813427       0.38525106       0.00322254 </v>
   <v>       0.86660233       0.38498686       0.49666410 </v>
   <v>       0.86697967       0.88340326       0.99694627 </v>
   <v>       0.86676256       0.88275006       0.50311125 </v>
   <v>       0.13526456       0.11463748       0.99244135 </v>
   <v>       0.13637300       0.11754088       0.50816789 </v>
   <v>       0.13489719       0.61565357       0.99546075 </v>
   <v>       0.13524540       0.61383848       0.50411775 </v>
   <v>       0.63214716       0.11500754       0.99765136 </v>
   <v>       0.63412706       0.11793009       0.50279032 </v>
   <v>       0.63282767       0.61477404       0.99531904 </v>
   <v>       0.63312733       0.61290104       0.50601074 </v>
   <v>       0.11544284       0.36652920       0.99803798 </v>
   <v>       0.11538575       0.36542507       0.50192111 </v>
   <v>       0.11731362       0.86235565       0.01297020 </v>
   <v>       0.11837251       0.86136303       0.48750176 </v>
   <v>       0.61390268       0.36882342       0.00559558 </v>
   <v>       0.61424250       0.36679933       0.49492372 </v>
   <v>       0.61472609       0.86550023       0.99920085 </v>
   <v>       0.61651006       0.86449194       0.50087388 </v>
   <v>       0.38346889       0.13209064       0.99883314 </v>
   <v>       0.38195411       0.13430661       0.50129239 </v>
   <v>       0.38449125       0.63668021       0.99236398 </v>
   <v>       0.38455645       0.63431443       0.50739506 </v>
   <v>       0.88706992       0.12957642       0.98893504 </v>
   <v>       0.88504635       0.13360994       0.50927373 </v>
   <v>       0.88355348       0.63397506       0.99954257 </v>
   <v>       0.88392153       0.63298832       0.50054528 </v>
   <v>       0.99725159       0.00932397       0.12298545 </v>
   <v>       0.02653305       0.97802192       0.63484122 </v>
   <v>       0.00841401       0.50916620       0.12624987 </v>
   <v>       0.99708444       0.49812423       0.62550111 </v>
   <v>       0.50209083       0.00503816       0.12561148 </v>
   <v>       0.49757198       0.99598861       0.62535643 </v>
   <v>       0.48968419       0.51381486       0.12817532 </v>
   <v>       0.48931522       0.48126950       0.62971677 </v>
   <v>       0.99935854       0.00804841       0.37487706 </v>
   <v>       0.02310813       0.97710389       0.86772454 </v>
   <v>       0.00781767       0.50895858       0.37407958 </v>
   <v>       0.99760648       0.49895470       0.87417527 </v>
   <v>       0.50282052       0.00548686       0.37376873 </v>
   <v>       0.49614174       0.99544193       0.87546300 </v>
   <v>       0.49127189       0.51357155       0.37295919 </v>
   <v>       0.49107153       0.48394340       0.87026414 </v>
   <v>       0.24601745       0.24835669       0.37624479 </v>
   <v>       0.26741815       0.26525831       0.86816145 </v>
   <v>       0.24802708       0.71429132       0.36018779 </v>
   <v>       0.24170538       0.76399597       0.87456673 </v>
   <v>       0.75260457       0.24396844       0.37513312 </v>
   <v>       0.74800730       0.25472853       0.87339797 </v>
   <v>       0.74874944       0.74770758       0.37694098 </v>
   <v>       0.74801284       0.75045963       0.87347990 </v>
   <v>       0.24786186       0.24952166       0.12540577 </v>
   <v>       0.26429532       0.26486817       0.63010067 </v>
   <v>       0.24876843       0.71375841       0.13877872 </v>
   <v>       0.24252963       0.76217453       0.62542364 </v>
   <v>       0.75372965       0.24362430       0.12563892 </v>
   <v>       0.74763430       0.25697612       0.62553312 </v>
   <v>       0.74844220       0.74867505       0.12280646 </v>
   <v>       0.74917652       0.74995667       0.62705040 </v>
  </varray>
 </structure>
</modeling>
