       N       E                     dE             d eps       ncg     rms          rms(c)
DAV:   1    -0.112155416879E+04   -0.11216E+04   -0.93650E-02  6568   0.704E-01    0.315E-02
RMM:   2    -0.112155416916E+04   -0.36853E-06   -0.36408E-05  3536   0.110E-02    0.530E-02
RMM:   3    -0.112155416927E+04   -0.11068E-06   -0.10917E-05  3399   0.676E-03    0.764E-03
RMM:   4    -0.112155416978E+04   -0.51608E-06   -0.48020E-06  2334   0.299E-03    0.492E-03
RMM:   5    -0.112155417013E+04   -0.34252E-06   -0.31051E-06  2350   0.328E-03    0.929E-03
RMM:   6    -0.112155417004E+04    0.83601E-07   -0.16884E-06  1794   0.238E-03    0.140E-03
RMM:   7    -0.112155417004E+04   -0.61118E-09   -0.76532E-07  1283   0.228E-03    0.101E-03
RMM:   8    -0.112155417007E+04   -0.23705E-07   -0.32967E-07   990   0.196E-03
   1 F= -.11215542E+04 E0= -.11215542E+04  d E =-.112155E+04  mag=    40.0000
       N       E                     dE             d eps       ncg     rms          rms(c)
DAV:   1    -0.112155437314E+04   -0.20310E-03   -0.41265E-01  6400   0.764E-01    0.341E-01
RMM:   2    -0.112155529198E+04   -0.91884E-03   -0.12991E-02  6147   0.154E-01    0.271E-01
RMM:   3    -0.112155523574E+04    0.56237E-04   -0.70653E-04  5802   0.500E-02    0.138E-01
RMM:   4    -0.112155514513E+04    0.90614E-04   -0.26067E-04  4168   0.204E-02    0.922E-02
RMM:   5    -0.112155513394E+04    0.11188E-04   -0.88015E-05  3651   0.141E-02    0.717E-02
RMM:   6    -0.112155513888E+04   -0.49328E-05   -0.37081E-05  3562   0.890E-03    0.279E-02
RMM:   7    -0.112155514428E+04   -0.54073E-05   -0.16632E-05  3511   0.606E-03    0.155E-02
RMM:   8    -0.112155514816E+04   -0.38794E-05   -0.11221E-05  3231   0.465E-03
   2 F= -.11215551E+04 E0= -.11215551E+04  d E =-.978095E-03  mag=    40.0000
       N       E                     dE             d eps       ncg     rms          rms(c)
DAV:   1    -0.112155516007E+04   -0.15784E-04   -0.27118E-03  6472   0.624E-02    0.278E-02
RMM:   2    -0.112155516515E+04   -0.50800E-05   -0.78937E-05  3391   0.135E-02    0.244E-02
RMM:   3    -0.112155516618E+04   -0.10348E-05   -0.10863E-05  3233   0.615E-03    0.117E-02
RMM:   4    -0.112155516586E+04    0.32253E-06   -0.29925E-06  2143   0.296E-03    0.828E-03
RMM:   5    -0.112155516573E+04    0.12956E-06   -0.14325E-06  1800   0.253E-03    0.355E-03
RMM:   6    -0.112155516582E+04   -0.91924E-07   -0.60053E-07   894   0.204E-03    0.143E-03
RMM:   7    -0.112155516591E+04   -0.92710E-07   -0.35950E-07   735   0.189E-03    0.105E-03
RMM:   8    -0.112155516606E+04   -0.14159E-06   -0.42268E-07   737   0.184E-03
   3 F= -.11215552E+04 E0= -.11215552E+04  d E =-.995988E-03  mag=    40.0000
       N       E                     dE             d eps       ncg     rms          rms(c)
DAV:   1    -0.112155493018E+04    0.23574E-03   -0.43249E-01  6352   0.784E-01    0.250E-01
RMM:   2    -0.112155609878E+04   -0.11686E-02   -0.11384E-02  6159   0.145E-01    0.159E-01
RMM:   3    -0.112155615422E+04   -0.55434E-04   -0.61786E-04  5372   0.481E-02    0.845E-02
RMM:   4    -0.112155611436E+04    0.39857E-04   -0.14211E-04  3660   0.163E-02    0.488E-02
RMM:   5    -0.112155610319E+04    0.11166E-04   -0.63552E-05  3546   0.113E-02    0.496E-02
RMM:   6    -0.112155610366E+04   -0.47020E-06   -0.23711E-05  3506   0.841E-03    0.184E-02
RMM:   7    -0.112155610391E+04   -0.24332E-06   -0.11286E-05  3360   0.449E-03    0.966E-03
RMM:   8    -0.112155610346E+04    0.44712E-06   -0.59955E-06  3049   0.426E-03
   4 F= -.11215561E+04 E0= -.11215561E+04  d E =-.937405E-03  mag=    40.0000
       N       E                     dE             d eps       ncg     rms          rms(c)
DAV:   1    -0.112155593738E+04    0.16653E-03   -0.10772E-01  6256   0.391E-01    0.125E-01
RMM:   2    -0.112155623261E+04   -0.29523E-03   -0.28848E-03  6186   0.720E-02    0.803E-02
RMM:   3    -0.112155624267E+04   -0.10061E-04   -0.12607E-04  3692   0.238E-02    0.432E-02
RMM:   4    -0.112155623545E+04    0.72217E-05   -0.45451E-05  3513   0.963E-03    0.268E-02
RMM:   5    -0.112155623261E+04    0.28396E-05   -0.24919E-05  3464   0.779E-03    0.435E-02
RMM:   6    -0.112155623206E+04    0.55053E-06   -0.11369E-05  3282   0.506E-03    0.806E-03
RMM:   7    -0.112155623191E+04    0.14799E-06   -0.40372E-06  2595   0.327E-03    0.679E-03
RMM:   8    -0.112155623175E+04    0.15627E-06   -0.24787E-06  2099   0.272E-03
   5 F= -.11215562E+04 E0= -.11215562E+04  d E =-.106570E-02  mag=    40.0000
       N       E                     dE             d eps       ncg     rms          rms(c)
DAV:   1    -0.112155614199E+04    0.89917E-04   -0.31660E-01  6256   0.664E-01    0.176E-01
RMM:   2    -0.112155693109E+04   -0.78910E-03   -0.81246E-03  6188   0.119E-01    0.120E-01
RMM:   3    -0.112155694751E+04   -0.16420E-04   -0.40646E-04  4771   0.396E-02    0.682E-02
RMM:   4    -0.112155692250E+04    0.25010E-04   -0.10601E-04  3566   0.138E-02    0.379E-02
RMM:   5    -0.112155691652E+04    0.59820E-05   -0.44086E-05  3521   0.965E-03    0.407E-02
RMM:   6    -0.112155691734E+04   -0.82000E-06   -0.18293E-05  3421   0.688E-03    0.136E-02
RMM:   7    -0.112155691790E+04   -0.56197E-06   -0.85685E-06  3101   0.412E-03    0.825E-03
RMM:   8    -0.112155691799E+04   -0.84867E-07   -0.48368E-06  2662   0.364E-03
   6 F= -.11215569E+04 E0= -.11215569E+04  d E =-.686235E-03  mag=    40.0000
