<?xml version="1.0" encoding="ISO-8859-1"?>
<modeling>
 <generator>
  <i name="program" type="string">vasp </i>
  <i name="version" type="string">5.4.1  </i>
  <i name="subversion" type="string">05Feb16 (build Jan 25 2017 20:16:33) complex                          parallel </i>
  <i name="platform" type="string">BWXE6 </i>
  <i name="date" type="string">2019 08 06 </i>
  <i name="time" type="string">12:15:12 </i>
 </generator>
 <incar>
  <i type="string" name="SYSTEM"> STF</i>
  <i type="string" name="PREC">normal</i>
  <i type="string" name="ALGO"> Fast</i>
  <i type="int" name="ISPIN">     2</i>
  <i type="int" name="NELM">    40</i>
  <i type="int" name="NELMIN">     8</i>
  <i type="int" name="IBRION">     2</i>
  <i name="EDIFF">      0.00010000</i>
  <i name="EDIFFG">     -0.03000000</i>
  <i type="int" name="NSW">    30</i>
  <i type="int" name="ISIF">     3</i>
  <i name="ENCUT">    520.00000000</i>
  <i type="int" name="NBANDS">   768</i>
  <v name="MAGMOM">      0.60000000      0.60000000      0.60000000      0.60000000      0.60000000      0.60000000      0.60000000      0.60000000      0.60000000      0.60000000      0.60000000      0.60000000      0.60000000      0.60000000      0.60000000      0.60000000      0.60000000      0.60000000      0.60000000      0.60000000
      0.60000000      0.60000000      0.60000000      0.60000000      0.60000000      0.60000000      0.60000000      0.60000000      0.60000000      0.60000000      0.60000000      0.60000000      0.60000000      0.60000000      0.60000000      0.60000000      0.60000000      0.60000000      0.60000000      0.60000000
      0.60000000      0.60000000      0.60000000      0.60000000      0.60000000      0.60000000      0.60000000      0.60000000      0.60000000      0.60000000      0.60000000      0.60000000      0.60000000      0.60000000      0.60000000      0.60000000      5.00000000      5.00000000      5.00000000      5.00000000
      5.00000000      5.00000000      5.00000000      5.00000000      0.60000000      0.60000000      0.60000000      0.60000000      0.60000000      0.60000000      0.60000000      0.60000000      0.60000000      0.60000000      0.60000000      0.60000000      0.60000000      0.60000000      0.60000000      0.60000000
      0.60000000      0.60000000      0.60000000      0.60000000      0.60000000      0.60000000      0.60000000      0.60000000      0.60000000      0.60000000      0.60000000      0.60000000      0.60000000      0.60000000      0.60000000      0.60000000      0.60000000      0.60000000      0.60000000      0.60000000
      0.60000000      0.60000000      0.60000000      0.60000000      0.60000000      0.60000000      0.60000000      0.60000000      0.60000000      0.60000000      0.60000000      0.60000000      0.60000000      0.60000000      0.60000000      0.60000000      0.60000000      0.60000000      0.60000000      0.60000000
      0.60000000      0.60000000      0.60000000      0.60000000      0.60000000      0.60000000      0.60000000      0.60000000      0.60000000      0.60000000      0.60000000      0.60000000      0.60000000      0.60000000      0.60000000      0.60000000      0.60000000      0.60000000      0.60000000      0.60000000
      0.60000000      0.60000000      0.60000000      0.60000000      0.60000000      0.60000000      0.60000000      0.60000000      0.60000000      0.60000000      0.60000000      0.60000000      0.60000000      0.60000000      0.60000000      0.60000000</v>
  <i type="string" name="LREAL"> Auto</i>
  <i type="int" name="ISMEAR">     0</i>
  <i name="SIGMA">      0.05000000</i>
  <i type="int" name="LMAXMIX">     4</i>
  <v type="int" name="KPOINT_BSE">    -1     0     0     0</v>
  <i type="int" name="NELM">    40</i>
  <i type="logical" name="LDAU"> T  </i>
  <v type="int" name="LDAUTYPE">     2</v>
  <v type="int" name="LDAUL">     0     2     2     0</v>
  <v name="LDAUU">      0.00000000      3.00000000      5.00000000      0.00000000</v>
  <v name="LDAUJ">      0.00000000      0.00000000      0.00000000      0.00000000</v>
  <i type="int" name="LDAUPRINT">     1</i>
 </incar>
 <kpoints>
  <generation param="Monkhorst-Pack">
   <v type="int" name="divisions">       2        2        2 </v>
   <v name="usershift">      0.00000000       0.00000000       0.00000000 </v>
   <v name="genvec1">      0.50000000      -0.00000000       0.00000000 </v>
   <v name="genvec2">      0.00000000       0.50000000       0.00000000 </v>
   <v name="genvec3">      0.00000000       0.00000000       0.50000000 </v>
   <v name="shift">      0.50000000       0.50000000       0.50000000 </v>
  </generation>
  <varray name="kpointlist" >
   <v>       0.25000000       0.25000000       0.25000000 </v>
   <v>      -0.25000000       0.25000000       0.25000000 </v>
  </varray>
  <varray name="weights" >
   <v>       0.50000000 </v>
   <v>       0.50000000 </v>
  </varray>
 </kpoints>
 <parameters>
  <separator name="general" >
   <i type="string" name="SYSTEM">STF</i>
   <i type="logical" name="LCOMPAT"> F  </i>
  </separator>
  <separator name="electronic" >
   <i type="string" name="PREC">normal</i>
   <i name="ENMAX">    520.00000000</i>
   <i name="ENAUG">    605.39200000</i>
   <i name="EDIFF">      0.00010000</i>
   <i type="int" name="IALGO">    68</i>
   <i type="int" name="IWAVPR">    11</i>
   <i type="int" name="NBANDS">   768</i>
   <i name="NELECT">   1032.00000000</i>
   <i type="int" name="TURBO">     0</i>
   <i type="int" name="IRESTART">     0</i>
   <i type="int" name="NREBOOT">     0</i>
   <i type="int" name="NMIN">     0</i>
   <i name="EREF">      0.00000000</i>
   <separator name="electronic smearing" >
    <i type="int" name="ISMEAR">     0</i>
    <i name="SIGMA">      0.05000000</i>
    <i name="KSPACING">      0.50000000</i>
    <i type="logical" name="KGAMMA"> T  </i>
   </separator>
   <separator name="electronic projectors" >
    <i type="logical" name="LREAL"> T  </i>
    <v name="ROPT">     -0.00050000     -0.00050000     -0.00050000     -0.00050000</v>
    <i type="int" name="LMAXPAW">  -100</i>
    <i type="int" name="LMAXMIX">     4</i>
    <i type="logical" name="NLSPLINE"> F  </i>
   </separator>
   <separator name="electronic startup" >
    <i type="int" name="ISTART">     1</i>
    <i type="int" name="ICHARG">     0</i>
    <i type="int" name="INIWAV">     1</i>
   </separator>
   <separator name="electronic spin" >
    <i type="int" name="ISPIN">     2</i>
    <i type="logical" name="LNONCOLLINEAR"> F  </i>
    <v name="MAGMOM">      0.60000000      0.60000000      0.60000000      0.60000000      0.60000000      0.60000000      0.60000000      0.60000000      0.60000000      0.60000000      0.60000000      0.60000000      0.60000000      0.60000000      0.60000000      0.60000000      0.60000000      0.60000000      0.60000000      0.60000000
      0.60000000      0.60000000      0.60000000      0.60000000      0.60000000      0.60000000      0.60000000      0.60000000      0.60000000      0.60000000      0.60000000      0.60000000      0.60000000      0.60000000      0.60000000      0.60000000      0.60000000      0.60000000      0.60000000      0.60000000
      0.60000000      0.60000000      0.60000000      0.60000000      0.60000000      0.60000000      0.60000000      0.60000000      0.60000000      0.60000000      0.60000000      0.60000000      0.60000000      0.60000000      0.60000000      0.60000000      5.00000000      5.00000000      5.00000000      5.00000000
      5.00000000      5.00000000      5.00000000      5.00000000      0.60000000      0.60000000      0.60000000      0.60000000      0.60000000      0.60000000      0.60000000      0.60000000      0.60000000      0.60000000      0.60000000      0.60000000      0.60000000      0.60000000      0.60000000      0.60000000
      0.60000000      0.60000000      0.60000000      0.60000000      0.60000000      0.60000000      0.60000000      0.60000000      0.60000000      0.60000000      0.60000000      0.60000000      0.60000000      0.60000000      0.60000000      0.60000000      0.60000000      0.60000000      0.60000000      0.60000000
      0.60000000      0.60000000      0.60000000      0.60000000      0.60000000      0.60000000      0.60000000      0.60000000      0.60000000      0.60000000      0.60000000      0.60000000      0.60000000      0.60000000      0.60000000      0.60000000      0.60000000      0.60000000      0.60000000      0.60000000
      0.60000000      0.60000000      0.60000000      0.60000000      0.60000000      0.60000000      0.60000000      0.60000000      0.60000000      0.60000000      0.60000000      0.60000000      0.60000000      0.60000000      0.60000000      0.60000000      0.60000000      0.60000000      0.60000000      0.60000000
      0.60000000      0.60000000      0.60000000      0.60000000      0.60000000      0.60000000      0.60000000      0.60000000      0.60000000      0.60000000      0.60000000      0.60000000      0.60000000      0.60000000      0.60000000      0.60000000</v>
    <i name="NUPDOWN">     -1.00000000</i>
    <i type="logical" name="LSORBIT"> F  </i>
    <v name="SAXIS">      0.00000000      0.00000000      1.00000000</v>
    <i type="logical" name="LSPIRAL"> F  </i>
    <v name="QSPIRAL">      0.00000000      0.00000000      0.00000000</v>
    <i type="logical" name="LZEROZ"> F  </i>
   </separator>
   <separator name="electronic exchange-correlation" >
    <i type="logical" name="LASPH"> F  </i>
    <i type="logical" name="LMETAGGA"> F  </i>
   </separator>
   <separator name="electronic convergence" >
    <i type="int" name="NELM">    40</i>
    <i type="int" name="NELMDL">     0</i>
    <i type="int" name="NELMIN">     8</i>
    <i name="ENINI">    520.00000000</i>
    <separator name="electronic convergence detail" >
     <i type="logical" name="LDIAG"> T  </i>
     <i type="logical" name="LSUBROT"> F  </i>
     <i name="WEIMIN">      0.00100000</i>
     <i name="EBREAK">      0.00000003</i>
     <i name="DEPER">      0.30000000</i>
     <i type="int" name="NRMM">     4</i>
     <i name="TIME">      0.40000000</i>
    </separator>
   </separator>
   <separator name="electronic mixer" >
    <i name="AMIX">      0.40000000</i>
    <i name="BMIX">      1.00000000</i>
    <i name="AMIN">      0.10000000</i>
    <i name="AMIX_MAG">      1.60000000</i>
    <i name="BMIX_MAG">      1.00000000</i>
    <separator name="electronic mixer details" >
     <i type="int" name="IMIX">     4</i>
     <i type="logical" name="MIXFIRST"> F  </i>
     <i type="int" name="MAXMIX">   -45</i>
     <i name="WC">    100.00000000</i>
     <i type="int" name="INIMIX">     1</i>
     <i type="int" name="MIXPRE">     1</i>
     <i type="int" name="MREMOVE">     5</i>
    </separator>
   </separator>
   <separator name="electronic dipolcorrection" >
    <i type="logical" name="LDIPOL"> F  </i>
    <i type="logical" name="LMONO"> F  </i>
    <i type="int" name="IDIPOL">     0</i>
    <i name="EPSILON">      1.00000000</i>
    <v name="DIPOL">   -100.00000000   -100.00000000   -100.00000000</v>
    <i name="EFIELD">      0.00000000</i>
   </separator>
  </separator>
  <separator name="grids" >
   <i type="int" name="NGX">    64</i>
   <i type="int" name="NGY">    64</i>
   <i type="int" name="NGZ">    90</i>
   <i type="int" name="NGXF">   128</i>
   <i type="int" name="NGYF">   128</i>
   <i type="int" name="NGZF">   180</i>
   <i type="logical" name="ADDGRID"> F  </i>
  </separator>
  <separator name="ionic" >
   <i type="int" name="NSW">    30</i>
   <i type="int" name="IBRION">     2</i>
   <i type="int" name="ISIF">     3</i>
   <i name="PSTRESS">      0.00000000</i>
   <i name="EDIFFG">     -0.03000000</i>
   <i type="int" name="NFREE">     1</i>
   <i name="POTIM">      0.50000000</i>
   <i name="SMASS">     -3.00000000</i>
   <i name="SCALEE">      1.00000000</i>
  </separator>
  <separator name="ionic md" >
   <i name="TEBEG">      0.00010000</i>
   <i name="TEEND">      0.00010000</i>
   <i type="int" name="NBLOCK">     1</i>
   <i type="int" name="KBLOCK">    30</i>
   <i type="int" name="NPACO">   256</i>
   <i name="APACO">     16.00000000</i>
  </separator>
  <separator name="symmetry" >
   <i type="int" name="ISYM">     2</i>
   <i name="SYMPREC">      0.00001000</i>
  </separator>
  <separator name="dos" >
   <i type="logical" name="LORBIT"> F  </i>
   <v name="RWIGS">     -1.00000000     -1.00000000     -1.00000000     -1.00000000</v>
   <i type="int" name="NEDOS">   301</i>
   <i name="EMIN">     10.00000000</i>
   <i name="EMAX">    -10.00000000</i>
   <i name="EFERMI">      0.00000000</i>
  </separator>
  <separator name="writing" >
   <i type="int" name="NWRITE">     2</i>
   <i type="logical" name="LWAVE"> T  </i>
   <i type="logical" name="LCHARG"> T  </i>
   <i type="logical" name="LPARD"> F  </i>
   <i type="logical" name="LVTOT"> F  </i>
   <i type="logical" name="LVHAR"> F  </i>
   <i type="logical" name="LELF"> F  </i>
   <i type="logical" name="LOPTICS"> F  </i>
   <v name="STM">      0.00000000      0.00000000      0.00000000      0.00000000      0.00000000      0.00000000      0.00000000</v>
  </separator>
  <separator name="performance" >
   <i type="int" name="NPAR">     2</i>
   <i type="int" name="NSIM">     4</i>
   <i type="int" name="NBLK">    -1</i>
   <i type="logical" name="LPLANE"> T  </i>
   <i type="logical" name="LSCALAPACK"> T  </i>
   <i type="logical" name="LSCAAWARE"> F  </i>
   <i type="logical" name="LSCALU"> F  </i>
   <i type="logical" name="LASYNC"> F  </i>
   <i type="logical" name="LORBITALREAL"> F  </i>
  </separator>
  <separator name="miscellaneous" >
   <i type="int" name="IDIOT">     3</i>
   <i type="logical" name="LMUSIC"> F  </i>
   <v name="POMASS">     87.62000000     47.88000000     55.84700000     16.00000000</v>
   <v name="DARWINR">      0.00000000      0.00000000      0.00000000      0.00000000</v>
   <v name="DARWINV">      1.00000000      1.00000000      1.00000000      1.00000000</v>
   <i type="logical" name="LCORR"> T  </i>
  </separator>
  <i type="logical" name="GGA_COMPAT"> T  </i>
  <i type="logical" name="LBERRY"> F  </i>
  <i type="int" name="ICORELEVEL">     0</i>
  <i type="logical" name="LDAU"> T  </i>
  <v type="int" name="LDAUTYPE">     2</v>
  <v type="int" name="LDAUL">     0</v>
  <v name="LDAUU">      0.00000000</v>
  <v name="LDAUJ">      0.00000000</v>
  <i type="int" name="LDAUPRINT">     1</i>
  <i type="int" name="I_CONSTRAINED_M">     0</i>
  <separator name="electronic exchange-correlation" >
   <i type="string" name="GGA">--</i>
   <i type="int" name="VOSKOWN">     0</i>
   <i type="logical" name="LHFCALC"> F  </i>
   <i type="string" name="PRECFOCK"></i>
   <i type="logical" name="LSYMGRAD"> F  </i>
   <i type="logical" name="LHFONE"> F  </i>
   <i type="logical" name="LRHFCALC"> F  </i>
   <i type="logical" name="LTHOMAS"> F  </i>
   <i type="logical" name="LMODELHF"> F  </i>
   <i name="ENCUT4O">     -1.00000000</i>
   <i type="int" name="EXXOEP">     0</i>
   <i type="int" name="FOURORBIT">     0</i>
   <i name="AEXX">      0.00000000</i>
   <i name="HFALPHA">      0.00000000</i>
   <i name="MCALPHA">      0.00000000</i>
   <i name="ALDAX">      1.00000000</i>
   <i name="AGGAX">      1.00000000</i>
   <i name="ALDAC">      1.00000000</i>
   <i name="AGGAC">      1.00000000</i>
   <i type="int" name="NKREDX">     1</i>
   <i type="int" name="NKREDY">     1</i>
   <i type="int" name="NKREDZ">     1</i>
   <i type="logical" name="SHIFTRED"> F  </i>
   <i type="logical" name="ODDONLY"> F  </i>
   <i type="logical" name="EVENONLY"> F  </i>
   <i type="int" name="LMAXFOCK">     0</i>
   <i type="int" name="NMAXFOCKAE">     0</i>
   <i type="logical" name="LFOCKAEDFT"> F  </i>
   <i name="HFSCREEN">      0.00000000</i>
   <i name="HFSCREENC">      0.00000000</i>
   <i type="int" name="NBANDSGWLOW">     0</i>
  </separator>
  <separator name="vdW DFT" >
   <i type="logical" name="LUSE_VDW"> F  </i>
   <i name="Zab_VDW">     -0.84910000</i>
   <i name="PARAM1">      0.12340000</i>
   <i name="PARAM2">      1.00000000</i>
   <i name="PARAM3">      0.00000000</i>
  </separator>
  <separator name="model GW" >
   <i type="int" name="MODEL_GW">     0</i>
   <i name="MODEL_EPS0">      7.70203469</i>
   <i name="MODEL_ALPHA">      1.00000000</i>
  </separator>
  <separator name="linear response parameters" >
   <i type="logical" name="LEPSILON"> F  </i>
   <i type="logical" name="LRPA"> F  </i>
   <i type="logical" name="LNABLA"> F  </i>
   <i type="logical" name="LVEL"> F  </i>
   <i type="int" name="KINTER">     0</i>
   <i name="CSHIFT">      0.10000000</i>
   <i name="OMEGAMAX">     -1.00000000</i>
   <i name="DEG_THRESHOLD">      0.00200000</i>
  </separator>
  <separator name="orbital magnetization" >
   <i type="logical" name="NUCIND"> F  </i>
   <v name="MAGPOS">      0.00000000      0.00000000      0.00000000</v>
   <i type="logical" name="LNICSALL"> T  </i>
   <i type="logical" name="ORBITALMAG"> F  </i>
   <i type="logical" name="LMAGBLOCH"> F  </i>
   <i type="logical" name="LCHIMAG"> F  </i>
   <i type="logical" name="LGAUGE"> T  </i>
   <i type="int" name="MAGATOM">     0</i>
   <v name="MAGDIPOL">      0.00000000      0.00000000      0.00000000</v>
   <v name="AVECCONST">      0.00000000      0.00000000      0.00000000</v>
  </separator>
  <separator name="response functions" >
   <i type="logical" name="LADDER"> F  </i>
   <i type="logical" name="LFXC"> F  </i>
   <i type="logical" name="LHARTREE"> T  </i>
   <i type="int" name="IBSE">     0</i>
   <v type="int" name="KPOINT">    -1     0     0     0</v>
   <i type="logical" name="LTCTE"> F  </i>
   <i type="logical" name="LTETE"> F  </i>
   <i type="logical" name="LTRIPLET"> F  </i>
   <i type="logical" name="LFXCEPS"> F  </i>
   <i type="logical" name="LFXHEG"> F  </i>
   <i type="int" name="NATURALO">     0</i>
   <i type="logical" name="L2ORDER"> F  </i>
   <i type="logical" name="LUSEW"> F  </i>
   <i name="ENCUTGW">     -2.00000000</i>
   <i name="ENCUTGWSOFT">     -2.00000000</i>
   <i name="ENCUTLF">     -1.00000000</i>
   <i type="int" name="LMAXMP2">    -1</i>
   <i name="SCISSOR">      0.00000000</i>
   <i type="int" name="NOMEGA">     0</i>
   <i type="int" name="NOMEGAR">     0</i>
   <i type="int" name="NBANDSGW">    -1</i>
   <i type="int" name="NBANDSO">    -1</i>
   <i type="int" name="NBANDSV">    -1</i>
   <i type="int" name="NELM">    40</i>
   <i type="int" name="NELMHF">     1</i>
   <i type="int" name="DIM">     3</i>
   <i type="int" name="ANTIRES">     0</i>
   <i name="OMEGAMAX">    -30.00000000</i>
   <i name="OMEGAMIN">    -30.00000000</i>
   <i name="OMEGATL">   -200.00000000</i>
   <i type="int" name="OMEGAGRID">     0</i>
   <i name="CSHIFT">     -0.10000000</i>
   <i type="logical" name="SELFENERGY"> F  </i>
   <i type="logical" name="LSPECTRAL"> F  </i>
   <i type="logical" name="LSPECTRALGW"> F  </i>
   <i type="logical" name="LSINGLES"> F  </i>
   <i type="logical" name="LFERMIGW"> F  </i>
   <i type="logical" name="ODDONLYGW"> F  </i>
   <i type="logical" name="EVENONLYGW"> F  </i>
   <i type="int" name="NKREDLFX">     1</i>
   <i type="int" name="NKREDLFY">     1</i>
   <i type="int" name="NKREDLFZ">     1</i>
   <i type="int" name="MAXMEM">  1800</i>
   <i type="int" name="TELESCOPE">     0</i>
   <i type="int" name="TAUPAR">     1</i>
   <i type="int" name="OMEGAPAR">    -1</i>
   <i name="LAMBDA">      1.00000000</i>
  </separator>
  <separator name="External order field" >
   <i name="OFIELD_KAPPA">      0.00000000</i>
   <v name="OFIELD_K">      0.00000000      0.00000000      0.00000000</v>
   <i name="OFIELD_Q6_NEAR">      0.00000000</i>
   <i name="OFIELD_Q6_FAR">      0.00000000</i>
   <i name="OFIELD_A">      0.00000000</i>
  </separator>
 </parameters>
 <atominfo>
  <atoms>     156 </atoms>
  <types>       4 </types>
  <array name="atoms" >
   <dimension dim="1">ion</dimension>
   <field type="string">element</field>
   <field type="int">atomtype</field>
   <set>
    <rc><c>Sr</c><c>   1</c></rc>
    <rc><c>Sr</c><c>   1</c></rc>
    <rc><c>Sr</c><c>   1</c></rc>
    <rc><c>Sr</c><c>   1</c></rc>
    <rc><c>Sr</c><c>   1</c></rc>
    <rc><c>Sr</c><c>   1</c></rc>
    <rc><c>Sr</c><c>   1</c></rc>
    <rc><c>Sr</c><c>   1</c></rc>
    <rc><c>Sr</c><c>   1</c></rc>
    <rc><c>Sr</c><c>   1</c></rc>
    <rc><c>Sr</c><c>   1</c></rc>
    <rc><c>Sr</c><c>   1</c></rc>
    <rc><c>Sr</c><c>   1</c></rc>
    <rc><c>Sr</c><c>   1</c></rc>
    <rc><c>Sr</c><c>   1</c></rc>
    <rc><c>Sr</c><c>   1</c></rc>
    <rc><c>Sr</c><c>   1</c></rc>
    <rc><c>Sr</c><c>   1</c></rc>
    <rc><c>Sr</c><c>   1</c></rc>
    <rc><c>Sr</c><c>   1</c></rc>
    <rc><c>Sr</c><c>   1</c></rc>
    <rc><c>Sr</c><c>   1</c></rc>
    <rc><c>Sr</c><c>   1</c></rc>
    <rc><c>Sr</c><c>   1</c></rc>
    <rc><c>Sr</c><c>   1</c></rc>
    <rc><c>Sr</c><c>   1</c></rc>
    <rc><c>Sr</c><c>   1</c></rc>
    <rc><c>Sr</c><c>   1</c></rc>
    <rc><c>Sr</c><c>   1</c></rc>
    <rc><c>Sr</c><c>   1</c></rc>
    <rc><c>Sr</c><c>   1</c></rc>
    <rc><c>Sr</c><c>   1</c></rc>
    <rc><c>Ti</c><c>   2</c></rc>
    <rc><c>Ti</c><c>   2</c></rc>
    <rc><c>Ti</c><c>   2</c></rc>
    <rc><c>Ti</c><c>   2</c></rc>
    <rc><c>Ti</c><c>   2</c></rc>
    <rc><c>Ti</c><c>   2</c></rc>
    <rc><c>Ti</c><c>   2</c></rc>
    <rc><c>Ti</c><c>   2</c></rc>
    <rc><c>Ti</c><c>   2</c></rc>
    <rc><c>Ti</c><c>   2</c></rc>
    <rc><c>Ti</c><c>   2</c></rc>
    <rc><c>Ti</c><c>   2</c></rc>
    <rc><c>Ti</c><c>   2</c></rc>
    <rc><c>Ti</c><c>   2</c></rc>
    <rc><c>Ti</c><c>   2</c></rc>
    <rc><c>Ti</c><c>   2</c></rc>
    <rc><c>Ti</c><c>   2</c></rc>
    <rc><c>Ti</c><c>   2</c></rc>
    <rc><c>Ti</c><c>   2</c></rc>
    <rc><c>Ti</c><c>   2</c></rc>
    <rc><c>Ti</c><c>   2</c></rc>
    <rc><c>Ti</c><c>   2</c></rc>
    <rc><c>Ti</c><c>   2</c></rc>
    <rc><c>Ti</c><c>   2</c></rc>
    <rc><c>Fe</c><c>   3</c></rc>
    <rc><c>Fe</c><c>   3</c></rc>
    <rc><c>Fe</c><c>   3</c></rc>
    <rc><c>Fe</c><c>   3</c></rc>
    <rc><c>Fe</c><c>   3</c></rc>
    <rc><c>Fe</c><c>   3</c></rc>
    <rc><c>Fe</c><c>   3</c></rc>
    <rc><c>Fe</c><c>   3</c></rc>
    <rc><c>O </c><c>   4</c></rc>
    <rc><c>O </c><c>   4</c></rc>
    <rc><c>O </c><c>   4</c></rc>
    <rc><c>O </c><c>   4</c></rc>
    <rc><c>O </c><c>   4</c></rc>
    <rc><c>O </c><c>   4</c></rc>
    <rc><c>O </c><c>   4</c></rc>
    <rc><c>O </c><c>   4</c></rc>
    <rc><c>O </c><c>   4</c></rc>
    <rc><c>O </c><c>   4</c></rc>
    <rc><c>O </c><c>   4</c></rc>
    <rc><c>O </c><c>   4</c></rc>
    <rc><c>O </c><c>   4</c></rc>
    <rc><c>O </c><c>   4</c></rc>
    <rc><c>O </c><c>   4</c></rc>
    <rc><c>O </c><c>   4</c></rc>
    <rc><c>O </c><c>   4</c></rc>
    <rc><c>O </c><c>   4</c></rc>
    <rc><c>O </c><c>   4</c></rc>
    <rc><c>O </c><c>   4</c></rc>
    <rc><c>O </c><c>   4</c></rc>
    <rc><c>O </c><c>   4</c></rc>
    <rc><c>O </c><c>   4</c></rc>
    <rc><c>O </c><c>   4</c></rc>
    <rc><c>O </c><c>   4</c></rc>
    <rc><c>O </c><c>   4</c></rc>
    <rc><c>O </c><c>   4</c></rc>
    <rc><c>O </c><c>   4</c></rc>
    <rc><c>O </c><c>   4</c></rc>
    <rc><c>O </c><c>   4</c></rc>
    <rc><c>O </c><c>   4</c></rc>
    <rc><c>O </c><c>   4</c></rc>
    <rc><c>O </c><c>   4</c></rc>
    <rc><c>O </c><c>   4</c></rc>
    <rc><c>O </c><c>   4</c></rc>
    <rc><c>O </c><c>   4</c></rc>
    <rc><c>O </c><c>   4</c></rc>
    <rc><c>O </c><c>   4</c></rc>
    <rc><c>O </c><c>   4</c></rc>
    <rc><c>O </c><c>   4</c></rc>
    <rc><c>O </c><c>   4</c></rc>
    <rc><c>O </c><c>   4</c></rc>
    <rc><c>O </c><c>   4</c></rc>
    <rc><c>O </c><c>   4</c></rc>
    <rc><c>O </c><c>   4</c></rc>
    <rc><c>O </c><c>   4</c></rc>
    <rc><c>O </c><c>   4</c></rc>
    <rc><c>O </c><c>   4</c></rc>
    <rc><c>O </c><c>   4</c></rc>
    <rc><c>O </c><c>   4</c></rc>
    <rc><c>O </c><c>   4</c></rc>
    <rc><c>O </c><c>   4</c></rc>
    <rc><c>O </c><c>   4</c></rc>
    <rc><c>O </c><c>   4</c></rc>
    <rc><c>O </c><c>   4</c></rc>
    <rc><c>O </c><c>   4</c></rc>
    <rc><c>O </c><c>   4</c></rc>
    <rc><c>O </c><c>   4</c></rc>
    <rc><c>O </c><c>   4</c></rc>
    <rc><c>O </c><c>   4</c></rc>
    <rc><c>O </c><c>   4</c></rc>
    <rc><c>O </c><c>   4</c></rc>
    <rc><c>O </c><c>   4</c></rc>
    <rc><c>O </c><c>   4</c></rc>
    <rc><c>O </c><c>   4</c></rc>
    <rc><c>O </c><c>   4</c></rc>
    <rc><c>O </c><c>   4</c></rc>
    <rc><c>O </c><c>   4</c></rc>
    <rc><c>O </c><c>   4</c></rc>
    <rc><c>O </c><c>   4</c></rc>
    <rc><c>O </c><c>   4</c></rc>
    <rc><c>O </c><c>   4</c></rc>
    <rc><c>O </c><c>   4</c></rc>
    <rc><c>O </c><c>   4</c></rc>
    <rc><c>O </c><c>   4</c></rc>
    <rc><c>O </c><c>   4</c></rc>
    <rc><c>O </c><c>   4</c></rc>
    <rc><c>O </c><c>   4</c></rc>
    <rc><c>O </c><c>   4</c></rc>
    <rc><c>O </c><c>   4</c></rc>
    <rc><c>O </c><c>   4</c></rc>
    <rc><c>O </c><c>   4</c></rc>
    <rc><c>O </c><c>   4</c></rc>
    <rc><c>O </c><c>   4</c></rc>
    <rc><c>O </c><c>   4</c></rc>
    <rc><c>O </c><c>   4</c></rc>
    <rc><c>O </c><c>   4</c></rc>
    <rc><c>O </c><c>   4</c></rc>
    <rc><c>O </c><c>   4</c></rc>
    <rc><c>O </c><c>   4</c></rc>
    <rc><c>O </c><c>   4</c></rc>
    <rc><c>O </c><c>   4</c></rc>
   </set>
  </array>
  <array name="atomtypes" >
   <dimension dim="1">type</dimension>
   <field type="int">atomspertype</field>
   <field type="string">element</field>
   <field>mass</field>
   <field>valence</field>
   <field type="string">pseudopotential</field>
   <set>
    <rc><c>  32</c><c>Sr</c><c>     87.62000000</c><c>     10.00000000</c><c>  PAW_PBE Sr_sv 07Sep2000               </c></rc>
    <rc><c>  24</c><c>Ti</c><c>     47.88000000</c><c>      4.00000000</c><c>  PAW_PBE Ti 08Apr2002                  </c></rc>
    <rc><c>   8</c><c>Fe</c><c>     55.84700000</c><c>      8.00000000</c><c>  PAW_PBE Fe 06Sep2000                  </c></rc>
    <rc><c>  92</c><c>O </c><c>     16.00000000</c><c>      6.00000000</c><c>  PAW_PBE O 08Apr2002                   </c></rc>
   </set>
  </array>
 </atominfo>
 <structure name="initialpos" >
  <crystal>
   <varray name="basis" >
    <v>      11.24176407      -0.00439231       0.00000000 </v>
    <v>      -0.00435886      11.24443121       0.00000000 </v>
    <v>       0.00000000       0.00000000      15.84188751 </v>
   </varray>
   <i name="volume">   2002.52901818 </i>
   <varray name="rec_basis" >
    <v>       0.08895402       0.00003448       0.00000000 </v>
    <v>       0.00003475       0.08893292       0.00000000 </v>
    <v>       0.00000000       0.00000000       0.06312379 </v>
   </varray>
  </crystal>
  <varray name="positions" >
   <v>       0.99309699       0.25143317       0.12270885 </v>
   <v>       0.00053243       0.24837319       0.62210632 </v>
   <v>       0.99709621       0.74782113       0.12191175 </v>
   <v>       0.98971875       0.75162836       0.62166947 </v>
   <v>       0.50500003       0.25113412       0.12146176 </v>
   <v>       0.49759577       0.24872147       0.62551800 </v>
   <v>       0.50086122       0.74861977       0.12518215 </v>
   <v>       0.50847797       0.75090881       0.62100085 </v>
   <v>       0.99309699       0.25143317       0.37729115 </v>
   <v>       0.00053243       0.24837319       0.87789368 </v>
   <v>       0.99709621       0.74782113       0.37808825 </v>
   <v>       0.98971875       0.75162836       0.87833053 </v>
   <v>       0.50500003       0.25113412       0.37853824 </v>
   <v>       0.49759577       0.24872147       0.87448200 </v>
   <v>       0.50086122       0.74861977       0.37481785 </v>
   <v>       0.50847797       0.75090881       0.87899915 </v>
   <v>       0.24839835       0.98882299       0.11609043 </v>
   <v>       0.24851336       0.01194983       0.62506306 </v>
   <v>       0.24858038       0.51185219       0.12503666 </v>
   <v>       0.24861038       0.48906014       0.61588627 </v>
   <v>       0.75244324       0.99851084       0.12404277 </v>
   <v>       0.75004848       0.99731636       0.62260471 </v>
   <v>       0.74976413       0.50288404       0.12276230 </v>
   <v>       0.75284602       0.50570281       0.62394482 </v>
   <v>       0.24839835       0.98882299       0.38390957 </v>
   <v>       0.24851336       0.01194983       0.87493694 </v>
   <v>       0.24858038       0.51185219       0.37496334 </v>
   <v>       0.24861038       0.48906014       0.88411373 </v>
   <v>       0.75244324       0.99851084       0.37595723 </v>
   <v>       0.75004848       0.99731636       0.87739529 </v>
   <v>       0.74976413       0.50288404       0.37723770 </v>
   <v>       0.75284602       0.50570281       0.87605518 </v>
   <v>       0.24951815       0.74711048       0.50478668 </v>
   <v>       0.99855036       0.50185418       0.99888391 </v>
   <v>       0.99855036       0.50185418       0.50111609 </v>
   <v>       0.99885065       0.99987066       0.00123045 </v>
   <v>       0.24983270       0.25734001       0.75000000 </v>
   <v>       0.50034820       0.99947776       0.49862739 </v>
   <v>       0.50086955       0.50144444       0.99862449 </v>
   <v>       0.99640967       0.50239024       0.25000000 </v>
   <v>       0.74924483       0.24994024       0.99881807 </v>
   <v>       0.74924483       0.24994024       0.50118193 </v>
   <v>       0.50034820       0.99947776       0.00137261 </v>
   <v>       0.50086955       0.50144444       0.50137551 </v>
   <v>       0.24949626       0.24707616       0.49521988 </v>
   <v>       0.74939613       0.24989764       0.25000000 </v>
   <v>       0.75053557       0.24682978       0.75000000 </v>
   <v>       0.75037030       0.74721993       0.25000000 </v>
   <v>       0.99885065       0.99987066       0.49876955 </v>
   <v>       0.50323234       0.50202679       0.25000000 </v>
   <v>       0.74961501       0.75016846       0.75000000 </v>
   <v>       0.50345536       0.00238782       0.75000000 </v>
   <v>       0.24949626       0.24707616       0.00478012 </v>
   <v>       0.99646474       0.00274731       0.75000000 </v>
   <v>       0.24989189       0.75714081       0.25000000 </v>
   <v>       0.24951815       0.74711048       0.99521332 </v>
   <v>       0.51324497       0.99017569       0.25000000 </v>
   <v>       0.74888360       0.75028118       0.49837975 </v>
   <v>       0.25440020       0.27600269       0.25000000 </v>
   <v>       0.99245842       0.98577961       0.25000000 </v>
   <v>       0.51425616       0.48929987       0.75000000 </v>
   <v>       0.74888360       0.75028118       0.00162025 </v>
   <v>       0.25442445       0.77657243       0.75000000 </v>
   <v>       0.99214346       0.48482208       0.75000000 </v>
   <v>       0.01026501       0.00727002       0.12648726 </v>
   <v>       0.99748356       0.00391371       0.62495285 </v>
   <v>       0.99765942       0.50186729       0.12499824 </v>
   <v>       0.00955053       0.50437778       0.62625444 </v>
   <v>       0.48386907       0.00718839       0.12714085 </v>
   <v>       0.50396669       0.00440442       0.62490762 </v>
   <v>       0.50328505       0.50217112       0.12492052 </v>
   <v>       0.48448646       0.50469737       0.62702637 </v>
   <v>       0.01026501       0.00727002       0.37351274 </v>
   <v>       0.99748356       0.00391371       0.87504715 </v>
   <v>       0.99765942       0.50186729       0.37500176 </v>
   <v>       0.00955053       0.50437778       0.87374556 </v>
   <v>       0.48386907       0.00718839       0.37285915 </v>
   <v>       0.50396669       0.00440442       0.87509238 </v>
   <v>       0.50328505       0.50217112       0.37507948 </v>
   <v>       0.48448646       0.50469737       0.87297363 </v>
   <v>       0.24418413       0.21596210       0.36155496 </v>
   <v>       0.24958223       0.25318380       0.87739631 </v>
   <v>       0.24984854       0.75295388       0.37771862 </v>
   <v>       0.24393022       0.71651388       0.86170847 </v>
   <v>       0.74952029       0.25418944       0.37570289 </v>
   <v>       0.75001724       0.24517727       0.87530449 </v>
   <v>       0.74993084       0.74592188       0.37400553 </v>
   <v>       0.74943085       0.75358421       0.87464125 </v>
   <v>       0.24418413       0.21596210       0.13844504 </v>
   <v>       0.24958223       0.25318380       0.62260369 </v>
   <v>       0.24984854       0.75295388       0.12228138 </v>
   <v>       0.24393022       0.71651388       0.63829153 </v>
   <v>       0.74952029       0.25418944       0.12429711 </v>
   <v>       0.75001724       0.24517727       0.62469551 </v>
   <v>       0.74993084       0.74592188       0.12599447 </v>
   <v>       0.74943085       0.75358421       0.62535875 </v>
   <v>       0.60735716       0.14278697       0.25000000 </v>
   <v>       0.86923856       0.11546141       0.25000000 </v>
   <v>       0.13868633       0.39355257       0.25000000 </v>
   <v>       0.39990154       0.35504233       0.25000000 </v>
   <v>       0.64409534       0.39389982       0.25000000 </v>
   <v>       0.89241726       0.35939972       0.25000000 </v>
   <v>       0.10888321       0.64507988       0.25000000 </v>
   <v>       0.36002523       0.61210173       0.25000000 </v>
   <v>       0.60745522       0.64267769       0.25000000 </v>
   <v>       0.85714037       0.60597223       0.25000000 </v>
   <v>       0.14845109       0.90236352       0.25000000 </v>
   <v>       0.38899799       0.86361100       0.25000000 </v>
   <v>       0.64742661       0.89128634       0.25000000 </v>
   <v>       0.89335338       0.85202181       0.25000000 </v>
   <v>       0.13815097       0.11175115       0.50305597 </v>
   <v>       0.38598399       0.13770632       0.50185669 </v>
   <v>       0.63724727       0.11246918       0.49610522 </v>
   <v>       0.88770443       0.13862741       0.49814289 </v>
   <v>       0.11387791       0.36001574       0.49367993 </v>
   <v>       0.35989202       0.38368223       0.48864128 </v>
   <v>       0.61052358       0.36212950       0.50453207 </v>
   <v>       0.86315375       0.38701721       0.50308009 </v>
   <v>       0.13813969       0.61140589       0.49712256 </v>
   <v>       0.38545890       0.63714202       0.49848685 </v>
   <v>       0.63462953       0.61063025       0.50357425 </v>
   <v>       0.88839906       0.63540761       0.50181539 </v>
   <v>       0.11441204       0.86060188       0.50610888 </v>
   <v>       0.35974813       0.88440343       0.51129077 </v>
   <v>       0.60925669       0.86538528       0.49492767 </v>
   <v>       0.86605452       0.88870321       0.49675843 </v>
   <v>       0.10858016       0.14586270       0.75000000 </v>
   <v>       0.35988630       0.11258334       0.75000000 </v>
   <v>       0.60740929       0.14459369       0.75000000 </v>
   <v>       0.85553820       0.10590858       0.75000000 </v>
   <v>       0.14893780       0.40286824       0.75000000 </v>
   <v>       0.38945903       0.36327708       0.75000000 </v>
   <v>       0.64985426       0.39145505       0.75000000 </v>
   <v>       0.89370484       0.34982596       0.75000000 </v>
   <v>       0.60690206       0.64166256       0.75000000 </v>
   <v>       0.87073713       0.61527771       0.75000000 </v>
   <v>       0.13911376       0.89485622       0.75000000 </v>
   <v>       0.40014272       0.85582603       0.75000000 </v>
   <v>       0.64351427       0.89485727       0.75000000 </v>
   <v>       0.89268365       0.86058901       0.75000000 </v>
   <v>       0.13815097       0.11175115       0.99694403 </v>
   <v>       0.38598399       0.13770632       0.99814331 </v>
   <v>       0.63724727       0.11246918       0.00389478 </v>
   <v>       0.88770443       0.13862741       0.00185711 </v>
   <v>       0.11387791       0.36001574       0.00632007 </v>
   <v>       0.35989202       0.38368223       0.01135872 </v>
   <v>       0.61052358       0.36212950       0.99546793 </v>
   <v>       0.86315375       0.38701721       0.99691991 </v>
   <v>       0.13813969       0.61140589       0.00287744 </v>
   <v>       0.38545890       0.63714202       0.00151315 </v>
   <v>       0.63462953       0.61063025       0.99642575 </v>
   <v>       0.88839906       0.63540761       0.99818461 </v>
   <v>       0.11441204       0.86060188       0.99389112 </v>
   <v>       0.35974813       0.88440343       0.98870923 </v>
   <v>       0.60925669       0.86538528       0.00507233 </v>
   <v>       0.86605452       0.88870321       0.00324157 </v>
  </varray>
 </structure>
 <calculation>
  <scstep>
   <time name="dav">  148.89  148.89</time>
   <time name="total">  151.23  151.25</time>
   <energy>
    <i name="alphaZ">   5635.55196225 </i>
    <i name="ewald"> -61562.64996869 </i>
    <i name="hartreedc"> -15984.99815645 </i>
    <i name="XCdc">   2963.94548606 </i>
    <i name="pawpsdc"> 112985.13458373 </i>
    <i name="pawaedc">-111885.41133602 </i>
    <i name="eentropy">     -0.00000000 </i>
    <i name="bandstr">  -7056.57453636 </i>
    <i name="atom">  73783.44779670 </i>
    <i name="e_fr_energy">  -1121.55416879 </i>
    <i name="e_wo_entrp">  -1121.55416879 </i>
    <i name="e_0_energy">  -1121.55416879 </i>
   </energy>
  </scstep>
  <scstep>
   <time name="diag">   16.58   16.59</time>
   <time name="diis">   15.62   15.64</time>
   <time name="orth">    9.44    9.44</time>
   <time name="total">   43.97   44.04</time>
   <energy>
    <i name="e_fr_energy">  -1121.55416916 </i>
    <i name="e_wo_entrp">  -1121.55416916 </i>
    <i name="e_0_energy">  -1121.55416916 </i>
   </energy>
  </scstep>
  <scstep>
   <time name="diag">   16.56   16.57</time>
   <time name="diis">   15.32   15.32</time>
   <time name="orth">    9.44    9.44</time>
   <time name="total">   43.65   43.67</time>
   <energy>
    <i name="e_fr_energy">  -1121.55416927 </i>
    <i name="e_wo_entrp">  -1121.55416927 </i>
    <i name="e_0_energy">  -1121.55416927 </i>
   </energy>
  </scstep>
  <scstep>
   <time name="diag">   16.55   16.56</time>
   <time name="diis">   13.66   13.66</time>
   <time name="orth">    9.46    9.46</time>
   <time name="total">   41.99   42.05</time>
   <energy>
    <i name="e_fr_energy">  -1121.55416978 </i>
    <i name="e_wo_entrp">  -1121.55416978 </i>
    <i name="e_0_energy">  -1121.55416978 </i>
   </energy>
  </scstep>
  <scstep>
   <time name="diag">   16.57   16.57</time>
   <time name="diis">   13.65   13.65</time>
   <time name="orth">    9.44    9.44</time>
   <time name="total">   41.99   42.02</time>
   <energy>
    <i name="e_fr_energy">  -1121.55417013 </i>
    <i name="e_wo_entrp">  -1121.55417013 </i>
    <i name="e_0_energy">  -1121.55417013 </i>
   </energy>
  </scstep>
  <scstep>
   <time name="diag">   16.56   16.56</time>
   <time name="diis">   12.72   12.73</time>
   <time name="orth">    9.45    9.45</time>
   <time name="total">   41.06   41.13</time>
   <energy>
    <i name="e_fr_energy">  -1121.55417004 </i>
    <i name="e_wo_entrp">  -1121.55417004 </i>
    <i name="e_0_energy">  -1121.55417004 </i>
   </energy>
  </scstep>
  <scstep>
   <time name="diag">   16.55   16.57</time>
   <time name="diis">   12.00   12.00</time>
   <time name="orth">    9.43    9.43</time>
   <time name="total">   40.33   40.41</time>
   <energy>
    <i name="e_fr_energy">  -1121.55417004 </i>
    <i name="e_wo_entrp">  -1121.55417004 </i>
    <i name="e_0_energy">  -1121.55417004 </i>
   </energy>
  </scstep>
  <scstep>
   <time name="diag">   16.59   16.59</time>
   <time name="diis">   11.49   11.49</time>
   <time name="orth">    9.42    9.42</time>
   <time name="total">   38.08   38.17</time>
   <energy>
    <i name="alphaZ">   5635.55196225 </i>
    <i name="ewald"> -61562.64996869 </i>
    <i name="hartreedc"> -15984.94047958 </i>
    <i name="XCdc">   2963.93970661 </i>
    <i name="pawpsdc"> 112981.55028349 </i>
    <i name="pawaedc">-111881.83799739 </i>
    <i name="eentropy">     -0.00000000 </i>
    <i name="bandstr">  -7056.61547345 </i>
    <i name="atom">  73783.44779670 </i>
    <i name="e_fr_energy">  -1121.55417007 </i>
    <i name="e_wo_entrp">  -1121.55417007 </i>
    <i name="e_0_energy">  -1121.55417007 </i>
   </energy>
  </scstep>
  <structure>
   <crystal>
    <varray name="basis" >
     <v>      11.24176407      -0.00439231       0.00000000 </v>
     <v>      -0.00435886      11.24443121       0.00000000 </v>
     <v>       0.00000000       0.00000000      15.84188751 </v>
    </varray>
    <i name="volume">   2002.52901818 </i>
    <varray name="rec_basis" >
     <v>       0.08895402       0.00003448       0.00000000 </v>
     <v>       0.00003475       0.08893292       0.00000000 </v>
     <v>       0.00000000       0.00000000       0.06312379 </v>
    </varray>
   </crystal>
   <varray name="positions" >
    <v>       0.99309699       0.25143317       0.12270885 </v>
    <v>       0.00053243       0.24837319       0.62210632 </v>
    <v>       0.99709621       0.74782113       0.12191175 </v>
    <v>       0.98971875       0.75162836       0.62166947 </v>
    <v>       0.50500003       0.25113412       0.12146176 </v>
    <v>       0.49759577       0.24872147       0.62551800 </v>
    <v>       0.50086122       0.74861977       0.12518215 </v>
    <v>       0.50847797       0.75090881       0.62100085 </v>
    <v>       0.99309699       0.25143317       0.37729115 </v>
    <v>       0.00053243       0.24837319       0.87789368 </v>
    <v>       0.99709621       0.74782113       0.37808825 </v>
    <v>       0.98971875       0.75162836       0.87833053 </v>
    <v>       0.50500003       0.25113412       0.37853824 </v>
    <v>       0.49759577       0.24872147       0.87448200 </v>
    <v>       0.50086122       0.74861977       0.37481785 </v>
    <v>       0.50847797       0.75090881       0.87899915 </v>
    <v>       0.24839835       0.98882299       0.11609043 </v>
    <v>       0.24851336       0.01194983       0.62506306 </v>
    <v>       0.24858038       0.51185219       0.12503666 </v>
    <v>       0.24861038       0.48906014       0.61588627 </v>
    <v>       0.75244324       0.99851084       0.12404277 </v>
    <v>       0.75004848       0.99731636       0.62260471 </v>
    <v>       0.74976413       0.50288404       0.12276230 </v>
    <v>       0.75284602       0.50570281       0.62394482 </v>
    <v>       0.24839835       0.98882299       0.38390957 </v>
    <v>       0.24851336       0.01194983       0.87493694 </v>
    <v>       0.24858038       0.51185219       0.37496334 </v>
    <v>       0.24861038       0.48906014       0.88411373 </v>
    <v>       0.75244324       0.99851084       0.37595723 </v>
    <v>       0.75004848       0.99731636       0.87739529 </v>
    <v>       0.74976413       0.50288404       0.37723770 </v>
    <v>       0.75284602       0.50570281       0.87605518 </v>
    <v>       0.24951815       0.74711048       0.50478668 </v>
    <v>       0.99855036       0.50185418       0.99888391 </v>
    <v>       0.99855036       0.50185418       0.50111609 </v>
    <v>       0.99885065       0.99987066       0.00123045 </v>
    <v>       0.24983270       0.25734001       0.75000000 </v>
    <v>       0.50034820       0.99947776       0.49862739 </v>
    <v>       0.50086955       0.50144444       0.99862449 </v>
    <v>       0.99640967       0.50239024       0.25000000 </v>
    <v>       0.74924483       0.24994024       0.99881807 </v>
    <v>       0.74924483       0.24994024       0.50118193 </v>
    <v>       0.50034820       0.99947776       0.00137261 </v>
    <v>       0.50086955       0.50144444       0.50137551 </v>
    <v>       0.24949626       0.24707616       0.49521988 </v>
    <v>       0.74939613       0.24989764       0.25000000 </v>
    <v>       0.75053557       0.24682978       0.75000000 </v>
    <v>       0.75037030       0.74721993       0.25000000 </v>
    <v>       0.99885065       0.99987066       0.49876955 </v>
    <v>       0.50323234       0.50202679       0.25000000 </v>
    <v>       0.74961501       0.75016846       0.75000000 </v>
    <v>       0.50345536       0.00238782       0.75000000 </v>
    <v>       0.24949626       0.24707616       0.00478012 </v>
    <v>       0.99646474       0.00274731       0.75000000 </v>
    <v>       0.24989189       0.75714081       0.25000000 </v>
    <v>       0.24951815       0.74711048       0.99521332 </v>
    <v>       0.51324497       0.99017569       0.25000000 </v>
    <v>       0.74888360       0.75028118       0.49837975 </v>
    <v>       0.25440020       0.27600269       0.25000000 </v>
    <v>       0.99245842       0.98577961       0.25000000 </v>
    <v>       0.51425616       0.48929987       0.75000000 </v>
    <v>       0.74888360       0.75028118       0.00162025 </v>
    <v>       0.25442445       0.77657243       0.75000000 </v>
    <v>       0.99214346       0.48482208       0.75000000 </v>
    <v>       0.01026501       0.00727002       0.12648726 </v>
    <v>       0.99748356       0.00391371       0.62495285 </v>
    <v>       0.99765942       0.50186729       0.12499824 </v>
    <v>       0.00955053       0.50437778       0.62625444 </v>
    <v>       0.48386907       0.00718839       0.12714085 </v>
    <v>       0.50396669       0.00440442       0.62490762 </v>
    <v>       0.50328505       0.50217112       0.12492052 </v>
    <v>       0.48448646       0.50469737       0.62702637 </v>
    <v>       0.01026501       0.00727002       0.37351274 </v>
    <v>       0.99748356       0.00391371       0.87504715 </v>
    <v>       0.99765942       0.50186729       0.37500176 </v>
    <v>       0.00955053       0.50437778       0.87374556 </v>
    <v>       0.48386907       0.00718839       0.37285915 </v>
    <v>       0.50396669       0.00440442       0.87509238 </v>
    <v>       0.50328505       0.50217112       0.37507948 </v>
    <v>       0.48448646       0.50469737       0.87297363 </v>
    <v>       0.24418413       0.21596210       0.36155496 </v>
    <v>       0.24958223       0.25318380       0.87739631 </v>
    <v>       0.24984854       0.75295388       0.37771862 </v>
    <v>       0.24393022       0.71651388       0.86170847 </v>
    <v>       0.74952029       0.25418944       0.37570289 </v>
    <v>       0.75001724       0.24517727       0.87530449 </v>
    <v>       0.74993084       0.74592188       0.37400553 </v>
    <v>       0.74943085       0.75358421       0.87464125 </v>
    <v>       0.24418413       0.21596210       0.13844504 </v>
    <v>       0.24958223       0.25318380       0.62260369 </v>
    <v>       0.24984854       0.75295388       0.12228138 </v>
    <v>       0.24393022       0.71651388       0.63829153 </v>
    <v>       0.74952029       0.25418944       0.12429711 </v>
    <v>       0.75001724       0.24517727       0.62469551 </v>
    <v>       0.74993084       0.74592188       0.12599447 </v>
    <v>       0.74943085       0.75358421       0.62535875 </v>
    <v>       0.60735716       0.14278697       0.25000000 </v>
    <v>       0.86923856       0.11546141       0.25000000 </v>
    <v>       0.13868633       0.39355257       0.25000000 </v>
    <v>       0.39990154       0.35504233       0.25000000 </v>
    <v>       0.64409534       0.39389982       0.25000000 </v>
    <v>       0.89241726       0.35939972       0.25000000 </v>
    <v>       0.10888321       0.64507988       0.25000000 </v>
    <v>       0.36002523       0.61210173       0.25000000 </v>
    <v>       0.60745522       0.64267769       0.25000000 </v>
    <v>       0.85714037       0.60597223       0.25000000 </v>
    <v>       0.14845109       0.90236352       0.25000000 </v>
    <v>       0.38899799       0.86361100       0.25000000 </v>
    <v>       0.64742661       0.89128634       0.25000000 </v>
    <v>       0.89335338       0.85202181       0.25000000 </v>
    <v>       0.13815097       0.11175115       0.50305597 </v>
    <v>       0.38598399       0.13770632       0.50185669 </v>
    <v>       0.63724727       0.11246918       0.49610522 </v>
    <v>       0.88770443       0.13862741       0.49814289 </v>
    <v>       0.11387791       0.36001574       0.49367993 </v>
    <v>       0.35989202       0.38368223       0.48864128 </v>
    <v>       0.61052358       0.36212950       0.50453207 </v>
    <v>       0.86315375       0.38701721       0.50308009 </v>
    <v>       0.13813969       0.61140589       0.49712256 </v>
    <v>       0.38545890       0.63714202       0.49848685 </v>
    <v>       0.63462953       0.61063025       0.50357425 </v>
    <v>       0.88839906       0.63540761       0.50181539 </v>
    <v>       0.11441204       0.86060188       0.50610888 </v>
    <v>       0.35974813       0.88440343       0.51129077 </v>
    <v>       0.60925669       0.86538528       0.49492767 </v>
    <v>       0.86605452       0.88870321       0.49675843 </v>
    <v>       0.10858016       0.14586270       0.75000000 </v>
    <v>       0.35988630       0.11258334       0.75000000 </v>
    <v>       0.60740929       0.14459369       0.75000000 </v>
    <v>       0.85553820       0.10590858       0.75000000 </v>
    <v>       0.14893780       0.40286824       0.75000000 </v>
    <v>       0.38945903       0.36327708       0.75000000 </v>
    <v>       0.64985426       0.39145505       0.75000000 </v>
    <v>       0.89370484       0.34982596       0.75000000 </v>
    <v>       0.60690206       0.64166256       0.75000000 </v>
    <v>       0.87073713       0.61527771       0.75000000 </v>
    <v>       0.13911376       0.89485622       0.75000000 </v>
    <v>       0.40014272       0.85582603       0.75000000 </v>
    <v>       0.64351427       0.89485727       0.75000000 </v>
    <v>       0.89268365       0.86058901       0.75000000 </v>
    <v>       0.13815097       0.11175115       0.99694403 </v>
    <v>       0.38598399       0.13770632       0.99814331 </v>
    <v>       0.63724727       0.11246918       0.00389478 </v>
    <v>       0.88770443       0.13862741       0.00185711 </v>
    <v>       0.11387791       0.36001574       0.00632007 </v>
    <v>       0.35989202       0.38368223       0.01135872 </v>
    <v>       0.61052358       0.36212950       0.99546793 </v>
    <v>       0.86315375       0.38701721       0.99691991 </v>
    <v>       0.13813969       0.61140589       0.00287744 </v>
    <v>       0.38545890       0.63714202       0.00151315 </v>
    <v>       0.63462953       0.61063025       0.99642575 </v>
    <v>       0.88839906       0.63540761       0.99818461 </v>
    <v>       0.11441204       0.86060188       0.99389112 </v>
    <v>       0.35974813       0.88440343       0.98870923 </v>
    <v>       0.60925669       0.86538528       0.00507233 </v>
    <v>       0.86605452       0.88870321       0.00324157 </v>
   </varray>
  </structure>
  <varray name="forces" >
   <v>       0.00100029       0.02004848      -0.00955851 </v>
   <v>       0.00310007      -0.00867208      -0.01656788 </v>
   <v>      -0.00076181      -0.01197023      -0.01501939 </v>
   <v>      -0.00206415       0.00887081      -0.01603832 </v>
   <v>       0.00448741      -0.00434553      -0.00855883 </v>
   <v>       0.00133168       0.00111764      -0.00743666 </v>
   <v>      -0.00188168      -0.00933076      -0.00455551 </v>
   <v>       0.00126006      -0.00348003      -0.01455594 </v>
   <v>       0.00100029       0.02004848       0.00955851 </v>
   <v>       0.00310007      -0.00867208       0.01656788 </v>
   <v>      -0.00076181      -0.01197023       0.01501939 </v>
   <v>      -0.00206415       0.00887081       0.01603832 </v>
   <v>       0.00448741      -0.00434553       0.00855883 </v>
   <v>       0.00133168       0.00111764       0.00743666 </v>
   <v>      -0.00188168      -0.00933076       0.00455551 </v>
   <v>       0.00126006      -0.00348003       0.01455594 </v>
   <v>       0.00267240      -0.00257778      -0.00995690 </v>
   <v>       0.00390758       0.00720420      -0.01507194 </v>
   <v>       0.00119829       0.00343773      -0.01039851 </v>
   <v>      -0.00170800      -0.00714958      -0.00952750 </v>
   <v>       0.00168824      -0.00279719      -0.00842245 </v>
   <v>      -0.00690174      -0.00160893       0.00013860 </v>
   <v>      -0.00759183      -0.00586875      -0.00568481 </v>
   <v>      -0.00192923       0.00574598      -0.01531891 </v>
   <v>       0.00267240      -0.00257778       0.00995690 </v>
   <v>       0.00390758       0.00720420       0.01507194 </v>
   <v>       0.00119829       0.00343773       0.01039851 </v>
   <v>      -0.00170800      -0.00714958       0.00952750 </v>
   <v>       0.00168824      -0.00279719       0.00842245 </v>
   <v>      -0.00690174      -0.00160893      -0.00013860 </v>
   <v>      -0.00759183      -0.00586875       0.00568481 </v>
   <v>      -0.00192923       0.00574598       0.01531891 </v>
   <v>      -0.00346234      -0.01705716      -0.00311804 </v>
   <v>      -0.00328259       0.02034757       0.00472118 </v>
   <v>      -0.00328259       0.02034757      -0.00472118 </v>
   <v>      -0.00310581      -0.00733379       0.00540382 </v>
   <v>       0.01289644       0.00924133       0.00000000 </v>
   <v>       0.00436276       0.00644799      -0.01117400 </v>
   <v>       0.02661709       0.00276842      -0.00105849 </v>
   <v>      -0.00594586      -0.00566517       0.00000000 </v>
   <v>      -0.02134944       0.02108923       0.00463356 </v>
   <v>      -0.02134944       0.02108923      -0.00463356 </v>
   <v>       0.00436276       0.00644799       0.01117400 </v>
   <v>       0.02661709       0.00276842       0.00105849 </v>
   <v>      -0.00650810       0.00102845      -0.01064424 </v>
   <v>       0.02554528       0.04188807       0.00000000 </v>
   <v>       0.00379071      -0.00649661       0.00000000 </v>
   <v>      -0.00864746      -0.00122853       0.00000000 </v>
   <v>      -0.00310581      -0.00733379      -0.00540382 </v>
   <v>       0.00693678      -0.01536566       0.00000000 </v>
   <v>      -0.00526433       0.00712215       0.00000000 </v>
   <v>       0.00460793      -0.00887372       0.00000000 </v>
   <v>      -0.00650810       0.00102845       0.01064424 </v>
   <v>      -0.01290717      -0.01318838       0.00000000 </v>
   <v>       0.00087889      -0.00925900       0.00000000 </v>
   <v>      -0.00346234      -0.01705716       0.00311804 </v>
   <v>       0.02021589      -0.01589004       0.00000000 </v>
   <v>       0.00853624      -0.01890225       0.01056287 </v>
   <v>      -0.00265195       0.01222494       0.00000000 </v>
   <v>      -0.01015872      -0.02763540       0.00000000 </v>
   <v>       0.02614654      -0.00865573       0.00000000 </v>
   <v>       0.00853624      -0.01890225      -0.01056287 </v>
   <v>       0.01061215       0.00916073       0.00000000 </v>
   <v>      -0.01452497      -0.01127019       0.00000000 </v>
   <v>      -0.00398968       0.00626620      -0.01101857 </v>
   <v>       0.01015159      -0.00112525       0.00668942 </v>
   <v>       0.00235293      -0.00189403       0.00739267 </v>
   <v>       0.00088705       0.01057596       0.01791941 </v>
   <v>      -0.00583910       0.00398207      -0.00510844 </v>
   <v>      -0.00412854       0.00376242      -0.00955684 </v>
   <v>      -0.01001454      -0.00125064       0.00237904 </v>
   <v>      -0.00378747       0.00753973       0.00603547 </v>
   <v>      -0.00398968       0.00626620       0.01101857 </v>
   <v>       0.01015159      -0.00112525      -0.00668942 </v>
   <v>       0.00235293      -0.00189403      -0.00739267 </v>
   <v>       0.00088705       0.01057596      -0.01791941 </v>
   <v>      -0.00583910       0.00398207       0.00510844 </v>
   <v>      -0.00412854       0.00376242       0.00955684 </v>
   <v>      -0.01001454      -0.00125064      -0.00237904 </v>
   <v>      -0.00378747       0.00753973      -0.00603547 </v>
   <v>      -0.00016094      -0.00621840      -0.00491370 </v>
   <v>      -0.00385111       0.00657122      -0.01279371 </v>
   <v>      -0.00386600       0.00054034      -0.01206839 </v>
   <v>      -0.00080892      -0.00530112      -0.01145112 </v>
   <v>       0.00497474      -0.01114910      -0.00702979 </v>
   <v>       0.00305445      -0.00219913      -0.03058431 </v>
   <v>       0.00740852       0.00526302      -0.02575636 </v>
   <v>      -0.00059190       0.00016433      -0.00977753 </v>
   <v>      -0.00016094      -0.00621840       0.00491370 </v>
   <v>      -0.00385111       0.00657122       0.01279371 </v>
   <v>      -0.00386600       0.00054034       0.01206839 </v>
   <v>      -0.00080892      -0.00530112       0.01145112 </v>
   <v>       0.00497474      -0.01114910       0.00702979 </v>
   <v>       0.00305445      -0.00219913       0.03058431 </v>
   <v>       0.00740852       0.00526302       0.02575636 </v>
   <v>      -0.00059190       0.00016433       0.00977753 </v>
   <v>       0.00530017      -0.01232699       0.00000000 </v>
   <v>      -0.00028219       0.01395165       0.00000000 </v>
   <v>       0.00224371       0.01030025       0.00000000 </v>
   <v>       0.00954448      -0.00425568       0.00000000 </v>
   <v>      -0.00382527      -0.00835673       0.00000000 </v>
   <v>      -0.00134779      -0.00191058       0.00000000 </v>
   <v>       0.01580223       0.00814931       0.00000000 </v>
   <v>      -0.01434950      -0.02140094       0.00000000 </v>
   <v>      -0.01277143      -0.00435395       0.00000000 </v>
   <v>      -0.01533811       0.00356054       0.00000000 </v>
   <v>       0.02944654       0.01018831       0.00000000 </v>
   <v>       0.00130349       0.00750438       0.00000000 </v>
   <v>       0.00881792       0.01075766       0.00000000 </v>
   <v>      -0.01874106      -0.01333125       0.00000000 </v>
   <v>      -0.01888016      -0.00832086      -0.00368449 </v>
   <v>      -0.00436263      -0.01335400      -0.00809031 </v>
   <v>      -0.00668633       0.00268969      -0.01006506 </v>
   <v>      -0.00563987      -0.00838007      -0.00899355 </v>
   <v>       0.01974322       0.00097279      -0.00138607 </v>
   <v>      -0.01235982      -0.00069465       0.01529699 </v>
   <v>       0.01080682       0.00796568      -0.00097577 </v>
   <v>       0.00821716      -0.01858630       0.00261769 </v>
   <v>      -0.01175362       0.00895510       0.00923861 </v>
   <v>      -0.01184959      -0.00045630       0.00075782 </v>
   <v>      -0.02494597      -0.00816378       0.00250167 </v>
   <v>      -0.00171996      -0.01239481       0.00002234 </v>
   <v>       0.00385917       0.01323258       0.00666877 </v>
   <v>       0.00105956      -0.00196781       0.00101124 </v>
   <v>      -0.00647474       0.02901921       0.00084082 </v>
   <v>       0.01649055       0.00649628       0.00361101 </v>
   <v>       0.01661577       0.01219660       0.00000000 </v>
   <v>      -0.01447664      -0.01794120       0.00000000 </v>
   <v>      -0.01842427       0.00201846       0.00000000 </v>
   <v>       0.00803383      -0.00518815       0.00000000 </v>
   <v>       0.01974596       0.02240928       0.00000000 </v>
   <v>       0.00372291      -0.00090654       0.00000000 </v>
   <v>       0.01623136       0.00905127       0.00000000 </v>
   <v>       0.00511371       0.00007707       0.00000000 </v>
   <v>       0.00395271      -0.00327469       0.00000000 </v>
   <v>       0.00738371      -0.00375432       0.00000000 </v>
   <v>      -0.00552530       0.02325835       0.00000000 </v>
   <v>       0.00867508      -0.00033720       0.00000000 </v>
   <v>      -0.01006808      -0.01723086       0.00000000 </v>
   <v>       0.00786539       0.00593153       0.00000000 </v>
   <v>      -0.01888016      -0.00832086       0.00368449 </v>
   <v>      -0.00436263      -0.01335400       0.00809031 </v>
   <v>      -0.00668633       0.00268969       0.01006506 </v>
   <v>      -0.00563987      -0.00838007       0.00899355 </v>
   <v>       0.01974322       0.00097279       0.00138607 </v>
   <v>      -0.01235982      -0.00069465      -0.01529699 </v>
   <v>       0.01080682       0.00796568       0.00097577 </v>
   <v>       0.00821716      -0.01858630      -0.00261769 </v>
   <v>      -0.01175362       0.00895510      -0.00923861 </v>
   <v>      -0.01184959      -0.00045630      -0.00075782 </v>
   <v>      -0.02494597      -0.00816378      -0.00250167 </v>
   <v>      -0.00171996      -0.01239481      -0.00002234 </v>
   <v>       0.00385917       0.01323258      -0.00666877 </v>
   <v>       0.00105956      -0.00196781      -0.00101124 </v>
   <v>      -0.00647474       0.02901921      -0.00084082 </v>
   <v>       0.01649055       0.00649628      -0.00361101 </v>
  </varray>
  <varray name="stress" >
   <v>      -0.25430719      -0.05317195       0.00000000 </v>
   <v>      -0.05317201      -0.08920146       0.00000000 </v>
   <v>       0.00000000       0.00000000      -0.33163864 </v>
  </varray>
  <energy>
   <i name="e_fr_energy">  -1121.55417007 </i>
   <i name="e_wo_entrp">  -1121.55417007 </i>
   <i name="e_0_energy">     -0.00000000 </i>
  </energy>
  <time name="totalsc">  533.85  535.96</time>
 </calculation>
 <calculation>
  <scstep>
   <time name="dav">  145.84  145.88</time>
   <time name="total">  148.18  148.28</time>
   <energy>
    <i name="alphaZ">   5637.02288510 </i>
    <i name="ewald"> -61567.79947723 </i>
    <i name="hartreedc"> -15986.38208496 </i>
    <i name="XCdc">   2964.28401498 </i>
    <i name="pawpsdc"> 112981.51542468 </i>
    <i name="pawaedc">-111881.80370773 </i>
    <i name="eentropy">     -0.00000000 </i>
    <i name="bandstr">  -7051.83922470 </i>
    <i name="atom">  73783.44779670 </i>
    <i name="e_fr_energy">  -1121.55437314 </i>
    <i name="e_wo_entrp">  -1121.55437314 </i>
    <i name="e_0_energy">  -1121.55437314 </i>
   </energy>
  </scstep>
  <scstep>
   <time name="diag">   16.60   16.60</time>
   <time name="diis">   25.86   25.87</time>
   <time name="orth">    9.44    9.44</time>
   <time name="total">   54.26   54.30</time>
   <energy>
    <i name="e_fr_energy">  -1121.55529198 </i>
    <i name="e_wo_entrp">  -1121.55529198 </i>
    <i name="e_0_energy">  -1121.55529198 </i>
   </energy>
  </scstep>
  <scstep>
   <time name="diag">   16.63   16.62</time>
   <time name="diis">   24.52   24.52</time>
   <time name="orth">    9.46    9.47</time>
   <time name="total">   52.96   53.12</time>
   <energy>
    <i name="e_fr_energy">  -1121.55523574 </i>
    <i name="e_wo_entrp">  -1121.55523574 </i>
    <i name="e_0_energy">  -1121.55523574 </i>
   </energy>
  </scstep>
  <scstep>
   <time name="diag">   16.58   16.60</time>
   <time name="diis">   18.20   18.21</time>
   <time name="orth">    9.45    9.45</time>
   <time name="total">   46.59   46.61</time>
   <energy>
    <i name="e_fr_energy">  -1121.55514513 </i>
    <i name="e_wo_entrp">  -1121.55514513 </i>
    <i name="e_0_energy">  -1121.55514513 </i>
   </energy>
  </scstep>
  <scstep>
   <time name="diag">   16.62   16.62</time>
   <time name="diis">   16.23   16.24</time>
   <time name="orth">    9.42    9.43</time>
   <time name="total">   44.62   44.73</time>
   <energy>
    <i name="e_fr_energy">  -1121.55513394 </i>
    <i name="e_wo_entrp">  -1121.55513394 </i>
    <i name="e_0_energy">  -1121.55513394 </i>
   </energy>
  </scstep>
  <scstep>
   <time name="diag">   16.59   16.59</time>
   <time name="diis">   15.89   15.89</time>
   <time name="orth">    9.43    9.43</time>
   <time name="total">   44.26   44.28</time>
   <energy>
    <i name="e_fr_energy">  -1121.55513888 </i>
    <i name="e_wo_entrp">  -1121.55513888 </i>
    <i name="e_0_energy">  -1121.55513888 </i>
   </energy>
  </scstep>
  <scstep>
   <time name="diag">   16.59   16.59</time>
   <time name="diis">   15.66   15.65</time>
   <time name="orth">    9.46    9.46</time>
   <time name="total">   44.06   44.10</time>
   <energy>
    <i name="e_fr_energy">  -1121.55514428 </i>
    <i name="e_wo_entrp">  -1121.55514428 </i>
    <i name="e_0_energy">  -1121.55514428 </i>
   </energy>
  </scstep>
  <scstep>
   <time name="diag">   16.59   16.61</time>
   <time name="diis">   15.31   15.31</time>
   <time name="orth">    9.46    9.46</time>
   <time name="total">   41.94   41.97</time>
   <energy>
    <i name="alphaZ">   5637.02288510 </i>
    <i name="ewald"> -61567.79947723 </i>
    <i name="hartreedc"> -15982.61421677 </i>
    <i name="XCdc">   2964.03974092 </i>
    <i name="pawpsdc"> 113042.36306023 </i>
    <i name="pawaedc">-111942.70541662 </i>
    <i name="eentropy">     -0.00000000 </i>
    <i name="bandstr">  -7055.30952050 </i>
    <i name="atom">  73783.44779670 </i>
    <i name="e_fr_energy">  -1121.55514816 </i>
    <i name="e_wo_entrp">  -1121.55514816 </i>
    <i name="e_0_energy">  -1121.55514816 </i>
   </energy>
  </scstep>
  <structure>
   <crystal>
    <varray name="basis" >
     <v>      11.24065915      -0.00462320       0.00000000 </v>
     <v>      -0.00458953      11.24404361       0.00000000 </v>
     <v>       0.00000000       0.00000000      15.83985681 </v>
    </varray>
    <i name="volume">   2002.00647893 </i>
    <varray name="rec_basis" >
     <v>       0.08896277       0.00003631       0.00000000 </v>
     <v>       0.00003658       0.08893599       0.00000000 </v>
     <v>       0.00000000       0.00000000       0.06313188 </v>
    </varray>
   </crystal>
   <varray name="positions" >
    <v>       0.99310132       0.25151919       0.12267975 </v>
    <v>       0.00054572       0.24833599       0.62205587 </v>
    <v>       0.99709292       0.74776977       0.12186601 </v>
    <v>       0.98970991       0.75166642       0.62162063 </v>
    <v>       0.50501928       0.25111548       0.12143569 </v>
    <v>       0.49760149       0.24872627       0.62549535 </v>
    <v>       0.50085313       0.74857973       0.12516828 </v>
    <v>       0.50848337       0.75089388       0.62095652 </v>
    <v>       0.99310132       0.25151919       0.37732025 </v>
    <v>       0.00054572       0.24833599       0.87794413 </v>
    <v>       0.99709292       0.74776977       0.37813399 </v>
    <v>       0.98970991       0.75166642       0.87837937 </v>
    <v>       0.50501928       0.25111548       0.37856431 </v>
    <v>       0.49760149       0.24872627       0.87450465 </v>
    <v>       0.50085313       0.74857973       0.37483172 </v>
    <v>       0.50848337       0.75089388       0.87904348 </v>
    <v>       0.24840982       0.98881193       0.11606011 </v>
    <v>       0.24853014       0.01198074       0.62501717 </v>
    <v>       0.24858553       0.51186694       0.12500499 </v>
    <v>       0.24860304       0.48902946       0.61585726 </v>
    <v>       0.75245048       0.99849885       0.12401712 </v>
    <v>       0.75001886       0.99730944       0.62260513 </v>
    <v>       0.74973154       0.50285885       0.12274499 </v>
    <v>       0.75283775       0.50572746       0.62389817 </v>
    <v>       0.24840982       0.98881193       0.38393989 </v>
    <v>       0.24853014       0.01198074       0.87498283 </v>
    <v>       0.24858553       0.51186694       0.37499501 </v>
    <v>       0.24860304       0.48902946       0.88414274 </v>
    <v>       0.75245048       0.99849885       0.37598288 </v>
    <v>       0.75001886       0.99730944       0.87739487 </v>
    <v>       0.74973154       0.50285885       0.37725501 </v>
    <v>       0.75283775       0.50572746       0.87610183 </v>
    <v>       0.24950327       0.74703729       0.50477719 </v>
    <v>       0.99853631       0.50194147       0.99889828 </v>
    <v>       0.99853631       0.50194147       0.50110172 </v>
    <v>       0.99883731       0.99983919       0.00124690 </v>
    <v>       0.24988806       0.25737968       0.75000000 </v>
    <v>       0.50036693       0.99950543       0.49859336 </v>
    <v>       0.50098377       0.50145637       0.99862126 </v>
    <v>       0.99638414       0.50236593       0.25000000 </v>
    <v>       0.74915325       0.25003069       0.99883218 </v>
    <v>       0.74915325       0.25003069       0.50116782 </v>
    <v>       0.50036693       0.99950543       0.00140664 </v>
    <v>       0.50098377       0.50145637       0.50137874 </v>
    <v>       0.24946833       0.24708056       0.49518747 </v>
    <v>       0.74950583       0.25007740       0.25000000 </v>
    <v>       0.75055183       0.24680192       0.75000000 </v>
    <v>       0.75033319       0.74721464       0.25000000 </v>
    <v>       0.99883731       0.99983919       0.49875310 </v>
    <v>       0.50326208       0.50196087       0.25000000 </v>
    <v>       0.74959244       0.75019901       0.75000000 </v>
    <v>       0.50347512       0.00234976       0.75000000 </v>
    <v>       0.24946833       0.24708056       0.00481253 </v>
    <v>       0.99640933       0.00269070       0.75000000 </v>
    <v>       0.24989564       0.75710108       0.25000000 </v>
    <v>       0.24950327       0.74703729       0.99522281 </v>
    <v>       0.51333170       0.99010755       0.25000000 </v>
    <v>       0.74892020       0.75020010       0.49841192 </v>
    <v>       0.25438884       0.27605514       0.25000000 </v>
    <v>       0.99241477       0.98566103       0.25000000 </v>
    <v>       0.51436835       0.48926278       0.75000000 </v>
    <v>       0.74892020       0.75020010       0.00158808 </v>
    <v>       0.25447000       0.77661175       0.75000000 </v>
    <v>       0.99208111       0.48477370       0.75000000 </v>
    <v>       0.01024790       0.00729690       0.12645370 </v>
    <v>       0.99752712       0.00390890       0.62497322 </v>
    <v>       0.99766951       0.50185917       0.12502075 </v>
    <v>       0.00955435       0.50442316       0.62630901 </v>
    <v>       0.48384402       0.00720546       0.12712529 </v>
    <v>       0.50394898       0.00442055       0.62487852 </v>
    <v>       0.50324207       0.50216574       0.12492777 </v>
    <v>       0.48447022       0.50472971       0.62704475 </v>
    <v>       0.01024790       0.00729690       0.37354630 </v>
    <v>       0.99752712       0.00390890       0.87502678 </v>
    <v>       0.99766951       0.50185917       0.37497925 </v>
    <v>       0.00955435       0.50442316       0.87369099 </v>
    <v>       0.48384402       0.00720546       0.37287471 </v>
    <v>       0.50394898       0.00442055       0.87512148 </v>
    <v>       0.50324207       0.50216574       0.37507223 </v>
    <v>       0.48447022       0.50472971       0.87295525 </v>
    <v>       0.24418343       0.21593542       0.36154000 </v>
    <v>       0.24956571       0.25321199       0.87735735 </v>
    <v>       0.24983195       0.75295619       0.37768187 </v>
    <v>       0.24392674       0.71649114       0.86167360 </v>
    <v>       0.74954162       0.25414161       0.37568148 </v>
    <v>       0.75003035       0.24516784       0.87521136 </v>
    <v>       0.74996264       0.74594447       0.37392710 </v>
    <v>       0.74942831       0.75358492       0.87461147 </v>
    <v>       0.24418343       0.21593542       0.13846000 </v>
    <v>       0.24956571       0.25321199       0.62264265 </v>
    <v>       0.24983195       0.75295619       0.12231813 </v>
    <v>       0.24392674       0.71649114       0.63832640 </v>
    <v>       0.74954162       0.25414161       0.12431852 </v>
    <v>       0.75003035       0.24516784       0.62478864 </v>
    <v>       0.74996264       0.74594447       0.12607290 </v>
    <v>       0.74942831       0.75358492       0.62538853 </v>
    <v>       0.60737988       0.14273409       0.25000000 </v>
    <v>       0.86923737       0.11552126       0.25000000 </v>
    <v>       0.13869597       0.39359677       0.25000000 </v>
    <v>       0.39994249       0.35502408       0.25000000 </v>
    <v>       0.64407891       0.39386396       0.25000000 </v>
    <v>       0.89241147       0.35939152       0.25000000 </v>
    <v>       0.10895104       0.64511487       0.25000000 </v>
    <v>       0.35996362       0.61200989       0.25000000 </v>
    <v>       0.60740041       0.64265899       0.25000000 </v>
    <v>       0.85707455       0.60598748       0.25000000 </v>
    <v>       0.14857747       0.90240728       0.25000000 </v>
    <v>       0.38900359       0.86364319       0.25000000 </v>
    <v>       0.64746447       0.89133251       0.25000000 </v>
    <v>       0.89327293       0.85196458       0.25000000 </v>
    <v>       0.13806993       0.11171541       0.50304475 </v>
    <v>       0.38596525       0.13764902       0.50183205 </v>
    <v>       0.63721858       0.11248071       0.49607457 </v>
    <v>       0.88768021       0.13859144       0.49811550 </v>
    <v>       0.11396264       0.36001995       0.49367571 </v>
    <v>       0.35983898       0.38367923       0.48868786 </v>
    <v>       0.61056997       0.36216370       0.50452910 </v>
    <v>       0.86318898       0.38693748       0.50308806 </v>
    <v>       0.13808926       0.61144429       0.49715070 </v>
    <v>       0.38540805       0.63714004       0.49848916 </v>
    <v>       0.63452247       0.61059518       0.50358187 </v>
    <v>       0.88839166       0.63535442       0.50181545 </v>
    <v>       0.11442863       0.86065866       0.50612919 </v>
    <v>       0.35975267       0.88439499       0.51129385 </v>
    <v>       0.60922895       0.86550978       0.49493024 </v>
    <v>       0.86612530       0.88873111       0.49676942 </v>
    <v>       0.10865149       0.14591506       0.75000000 </v>
    <v>       0.35982414       0.11250634       0.75000000 </v>
    <v>       0.60733023       0.14460232       0.75000000 </v>
    <v>       0.85557266       0.10588634       0.75000000 </v>
    <v>       0.14902258       0.40296442       0.75000000 </v>
    <v>       0.38947501       0.36327320       0.75000000 </v>
    <v>       0.64992393       0.39149391       0.75000000 </v>
    <v>       0.89372678       0.34982630       0.75000000 </v>
    <v>       0.60691902       0.64164851       0.75000000 </v>
    <v>       0.87076881       0.61526162       0.75000000 </v>
    <v>       0.13909008       0.89495600       0.75000000 </v>
    <v>       0.40017995       0.85582459       0.75000000 </v>
    <v>       0.64347104       0.89478333       0.75000000 </v>
    <v>       0.89271742       0.86061447       0.75000000 </v>
    <v>       0.13806993       0.11171541       0.99695525 </v>
    <v>       0.38596525       0.13764902       0.99816795 </v>
    <v>       0.63721858       0.11248071       0.00392543 </v>
    <v>       0.88768021       0.13859144       0.00188450 </v>
    <v>       0.11396264       0.36001995       0.00632429 </v>
    <v>       0.35983898       0.38367923       0.01131214 </v>
    <v>       0.61056997       0.36216370       0.99547090 </v>
    <v>       0.86318898       0.38693748       0.99691194 </v>
    <v>       0.13808926       0.61144429       0.00284930 </v>
    <v>       0.38540805       0.63714004       0.00151084 </v>
    <v>       0.63452247       0.61059518       0.99641813 </v>
    <v>       0.88839166       0.63535442       0.99818455 </v>
    <v>       0.11442863       0.86065866       0.99387081 </v>
    <v>       0.35975267       0.88439499       0.98870615 </v>
    <v>       0.60922895       0.86550978       0.00506976 </v>
    <v>       0.86612530       0.88873111       0.00323058 </v>
   </varray>
  </structure>
  <varray name="forces" >
   <v>       0.00263178       0.00633609      -0.01213978 </v>
   <v>       0.00666694      -0.01280381      -0.01003435 </v>
   <v>       0.00119878      -0.00297355      -0.00615595 </v>
   <v>       0.00427250       0.01113817      -0.00194983 </v>
   <v>      -0.00026982      -0.01094075       0.00102198 </v>
   <v>      -0.00641046      -0.00484156       0.00056387 </v>
   <v>      -0.00738946      -0.00265896      -0.00192848 </v>
   <v>      -0.00588588       0.00164859      -0.00867485 </v>
   <v>       0.00263178       0.00633609       0.01213978 </v>
   <v>       0.00666694      -0.01280381       0.01003435 </v>
   <v>       0.00119878      -0.00297355       0.00615595 </v>
   <v>       0.00427250       0.01113817       0.00194983 </v>
   <v>      -0.00026982      -0.01094075      -0.00102198 </v>
   <v>      -0.00641046      -0.00484156      -0.00056387 </v>
   <v>      -0.00738946      -0.00265896       0.00192848 </v>
   <v>      -0.00588588       0.00164859       0.00867485 </v>
   <v>       0.00418701      -0.00316033      -0.00833075 </v>
   <v>       0.00086005       0.00811606      -0.00593158 </v>
   <v>       0.00507444       0.00093609      -0.00782984 </v>
   <v>       0.00061603      -0.00742911       0.00071517 </v>
   <v>       0.00335792       0.00556661      -0.00458072 </v>
   <v>      -0.00355484       0.00626251      -0.00368059 </v>
   <v>      -0.00398576      -0.00201631       0.00259136 </v>
   <v>       0.00294457       0.00131760       0.00124423 </v>
   <v>       0.00418701      -0.00316033       0.00833075 </v>
   <v>       0.00086005       0.00811606       0.00593158 </v>
   <v>       0.00507444       0.00093609       0.00782984 </v>
   <v>       0.00061603      -0.00742911      -0.00071517 </v>
   <v>       0.00335792       0.00556661       0.00458072 </v>
   <v>      -0.00355484       0.00626251       0.00368059 </v>
   <v>      -0.00398576      -0.00201631      -0.00259136 </v>
   <v>       0.00294457       0.00131760      -0.00124423 </v>
   <v>      -0.00101166       0.02025152       0.00738897 </v>
   <v>       0.01119077      -0.00553363      -0.01807404 </v>
   <v>       0.01119077      -0.00553363       0.01807404 </v>
   <v>       0.00530579       0.01204268      -0.00501568 </v>
   <v>      -0.00752069       0.00011737       0.00000000 </v>
   <v>      -0.02108896       0.00319519      -0.00636912 </v>
   <v>      -0.02909329      -0.00307752      -0.01458433 </v>
   <v>       0.00268702       0.01467290       0.00000000 </v>
   <v>       0.01735209      -0.02218785      -0.00958667 </v>
   <v>       0.01735209      -0.02218785       0.00958667 </v>
   <v>      -0.02108896       0.00319519       0.00636912 </v>
   <v>      -0.02909329      -0.00307752       0.01458433 </v>
   <v>      -0.00271725      -0.01123008      -0.00011166 </v>
   <v>      -0.02423358      -0.04328327       0.00000000 </v>
   <v>       0.01231598      -0.00416466       0.00000000 </v>
   <v>      -0.00550932      -0.00273007       0.00000000 </v>
   <v>       0.00530579       0.01204268       0.00501568 </v>
   <v>      -0.01824835       0.01199447       0.00000000 </v>
   <v>       0.01177677      -0.01816950       0.00000000 </v>
   <v>      -0.01463685       0.00516338       0.00000000 </v>
   <v>      -0.00271725      -0.01123008       0.00011166 </v>
   <v>       0.01550228       0.01767879       0.00000000 </v>
   <v>       0.00777436      -0.00005847       0.00000000 </v>
   <v>      -0.00101166       0.02025152      -0.00738897 </v>
   <v>       0.00042295       0.00575376       0.00000000 </v>
   <v>       0.00098033       0.00766546      -0.00201154 </v>
   <v>       0.00200244       0.00183792       0.00000000 </v>
   <v>      -0.00115326      -0.01231919       0.00000000 </v>
   <v>       0.00764673      -0.00758106       0.00000000 </v>
   <v>       0.00098033       0.00766546       0.00201154 </v>
   <v>      -0.00498193       0.01781293       0.00000000 </v>
   <v>       0.00352638      -0.00446645       0.00000000 </v>
   <v>      -0.00543598      -0.00002656       0.00908064 </v>
   <v>       0.00490959      -0.00178488      -0.00469654 </v>
   <v>      -0.00087506       0.00034766      -0.00146615 </v>
   <v>      -0.00439626       0.01043013      -0.01382738 </v>
   <v>      -0.00238949       0.00375807       0.00254252 </v>
   <v>       0.00018597       0.00405861      -0.00262023 </v>
   <v>      -0.00426448      -0.00275129      -0.00589720 </v>
[...]
       <r>   -16.2025     0.0000    32.0000 </r>
       <r>   -16.0503     0.0000    32.0000 </r>
       <r>   -15.8981     0.0000    32.0000 </r>
       <r>   -15.7460     0.0000    32.0000 </r>
       <r>   -15.5938     0.0000    32.0000 </r>
       <r>   -15.4416     0.0000    32.0000 </r>
       <r>   -15.2894     0.0000    32.0000 </r>
       <r>   -15.1372     0.4911    32.0747 </r>
       <r>   -14.9851    25.7310    35.9905 </r>
       <r>   -14.8329    55.5053    44.4373 </r>
       <r>   -14.6807    45.0812    51.2977 </r>
       <r>   -14.5285    29.3342    55.7618 </r>
       <r>   -14.3763    34.5869    61.0253 </r>
       <r>   -14.2242    43.9704    67.7167 </r>
       <r>   -14.0720   105.4953    83.7709 </r>
       <r>   -13.9198   132.0350   103.8640 </r>
       <r>   -13.7676    89.5660   117.4942 </r>
       <r>   -13.6154    40.0028   123.5818 </r>
       <r>   -13.4633     2.7478   124.0000 </r>
       <r>   -13.3111     0.0000   124.0000 </r>
       <r>   -13.1589     0.0000   124.0000 </r>
       <r>   -13.0067     0.0000   124.0000 </r>
       <r>   -12.8545     0.0000   124.0000 </r>
       <r>   -12.7024     0.4097   124.0624 </r>
       <r>   -12.5502    43.5852   130.6951 </r>
       <r>   -12.3980   140.3205   152.0491 </r>
       <r>   -12.2458   155.8467   175.7659 </r>
       <r>   -12.0936   127.9863   195.2429 </r>
       <r>   -11.9415   113.2736   212.4809 </r>
       <r>   -11.7893    47.9490   219.7777 </r>
       <r>   -11.6371     1.4605   220.0000 </r>
       <r>   -11.4849     0.0000   220.0000 </r>
       <r>   -11.3327     0.0000   220.0000 </r>
       <r>   -11.1806     0.0000   220.0000 </r>
       <r>   -11.0284     0.0000   220.0000 </r>
       <r>   -10.8762     0.0000   220.0000 </r>
       <r>   -10.7240     0.0000   220.0000 </r>
       <r>   -10.5718     0.0000   220.0000 </r>
       <r>   -10.4197     0.0000   220.0000 </r>
       <r>   -10.2675     0.0000   220.0000 </r>
       <r>   -10.1153     0.0000   220.0000 </r>
       <r>    -9.9631     0.0000   220.0000 </r>
       <r>    -9.8109     0.0000   220.0000 </r>
       <r>    -9.6588     0.0000   220.0000 </r>
       <r>    -9.5066     0.0000   220.0000 </r>
       <r>    -9.3544     0.0000   220.0000 </r>
       <r>    -9.2022     0.0000   220.0000 </r>
       <r>    -9.0500     0.0000   220.0000 </r>
       <r>    -8.8979     0.0000   220.0000 </r>
       <r>    -8.7457     0.0000   220.0000 </r>
       <r>    -8.5935     0.0000   220.0000 </r>
       <r>    -8.4413     0.0000   220.0000 </r>
       <r>    -8.2891     0.0000   220.0000 </r>
       <r>    -8.1370     0.0000   220.0000 </r>
       <r>    -7.9848     0.0000   220.0000 </r>
       <r>    -7.8326     0.0000   220.0000 </r>
       <r>    -7.6804     0.0000   220.0000 </r>
       <r>    -7.5282     0.0000   220.0000 </r>
       <r>    -7.3761     0.0000   220.0000 </r>
       <r>    -7.2239     0.0000   220.0000 </r>
       <r>    -7.0717     0.0000   220.0000 </r>
       <r>    -6.9195     0.0000   220.0000 </r>
       <r>    -6.7673     0.0000   220.0000 </r>
       <r>    -6.6152     0.0000   220.0000 </r>
       <r>    -6.4630     0.0000   220.0000 </r>
       <r>    -6.3108     0.0000   220.0000 </r>
       <r>    -6.1586     0.0000   220.0000 </r>
       <r>    -6.0064     0.0000   220.0000 </r>
       <r>    -5.8543     0.0000   220.0000 </r>
       <r>    -5.7021     0.0000   220.0000 </r>
       <r>    -5.5499     0.0000   220.0000 </r>
       <r>    -5.3977     0.0000   220.0000 </r>
       <r>    -5.2455     0.0000   220.0000 </r>
       <r>    -5.0934     0.0000   220.0000 </r>
       <r>    -4.9412     0.0000   220.0000 </r>
       <r>    -4.7890     0.0000   220.0000 </r>
       <r>    -4.6368     0.0000   220.0000 </r>
       <r>    -4.4846     0.0000   220.0000 </r>
       <r>    -4.3325     0.0000   220.0000 </r>
       <r>    -4.1803     0.0000   220.0000 </r>
       <r>    -4.0281     0.0000   220.0000 </r>
       <r>    -3.8759     0.0000   220.0000 </r>
       <r>    -3.7237     0.0000   220.0000 </r>
       <r>    -3.5716     0.0000   220.0000 </r>
       <r>    -3.4194     0.0000   220.0000 </r>
       <r>    -3.2672     0.0000   220.0000 </r>
       <r>    -3.1150     0.0000   220.0000 </r>
       <r>    -2.9628     0.0000   220.0000 </r>
       <r>    -2.8107     0.0000   220.0000 </r>
       <r>    -2.6585     0.0000   220.0000 </r>
       <r>    -2.5063     0.0000   220.0000 </r>
       <r>    -2.3541     0.7305   220.1112 </r>
       <r>    -2.2019     8.6245   221.4236 </r>
       <r>    -2.0498    30.1308   226.0089 </r>
       <r>    -1.8976    33.3747   231.0879 </r>
       <r>    -1.7454    44.8809   237.9179 </r>
       <r>    -1.5932    49.5200   245.4538 </r>
       <r>    -1.4410    54.5213   253.7509 </r>
       <r>    -1.2889    56.4846   262.3467 </r>
       <r>    -1.1367    71.3858   273.2102 </r>
       <r>    -0.9845    81.4557   285.6062 </r>
       <r>    -0.8323    65.8697   295.6302 </r>
       <r>    -0.6801    88.6685   309.1238 </r>
       <r>    -0.5280   112.1374   326.1889 </r>
       <r>    -0.3758   100.5865   341.4961 </r>
       <r>    -0.2236    69.8113   352.1200 </r>
       <r>    -0.0714    50.7103   359.8371 </r>
       <r>     0.0808    47.2088   367.0213 </r>
       <r>     0.2329    51.8763   374.9159 </r>
       <r>     0.3851    45.3036   381.8102 </r>
       <r>     0.5373    56.8437   390.4607 </r>
       <r>     0.6895    58.7305   399.3983 </r>
       <r>     0.8417    41.0163   405.6402 </r>
       <r>     0.9938    49.3880   413.1560 </r>
       <r>     1.1460    64.3112   422.9429 </r>
       <r>     1.2982    95.7311   437.5113 </r>
       <r>     1.4504    86.0471   450.6059 </r>
       <r>     1.6026    85.6317   463.6374 </r>
       <r>     1.7547    85.3753   476.6298 </r>
       <r>     1.9069    52.3543   484.5971 </r>
       <r>     2.0591    44.2691   491.3339 </r>
       <r>     2.2113    22.4891   494.7563 </r>
       <r>     2.3635     8.1704   495.9997 </r>
       <r>     2.5156     0.0020   496.0000 </r>
       <r>     2.6678     0.0000   496.0000 </r>
       <r>     2.8200     0.0000   496.0000 </r>
       <r>     2.9722     0.0000   496.0000 </r>
       <r>     3.1244     0.0000   496.0000 </r>
       <r>     3.2765     0.0000   496.0000 </r>
       <r>     3.4287     0.0000   496.0000 </r>
       <r>     3.5809     0.0000   496.0000 </r>
       <r>     3.7331     0.0000   496.0000 </r>
       <r>     3.8853     0.0000   496.0000 </r>
       <r>     4.0374     0.0000   496.0000 </r>
       <r>     4.1896     0.0000   496.0000 </r>
       <r>     4.3418     0.0001   496.0000 </r>
       <r>     4.4940     5.6083   496.8535 </r>
       <r>     4.6462    35.6488   502.2785 </r>
       <r>     4.7983    48.2017   509.6139 </r>
       <r>     4.9505    30.0304   514.1839 </r>
       <r>     5.1027    46.6930   521.2896 </r>
       <r>     5.2549    53.0815   529.3676 </r>
       <r>     5.4071    75.5909   540.8710 </r>
       <r>     5.5592    54.5092   549.1662 </r>
       <r>     5.7114    65.6165   559.1517 </r>
       <r>     5.8636    74.6323   570.5093 </r>
       <r>     6.0158    97.0948   585.2852 </r>
       <r>     6.1680    78.2248   597.1894 </r>
       <r>     6.3201    58.1675   606.0414 </r>
       <r>     6.4723    39.1269   611.9957 </r>
       <r>     6.6245    15.2839   614.3216 </r>
       <r>     6.7767    19.3222   617.2621 </r>
       <r>     6.9289    25.3371   621.1179 </r>
       <r>     7.0810    21.0041   624.3143 </r>
       <r>     7.2332    19.0562   627.2142 </r>
       <r>     7.3854    10.1444   628.7580 </r>
       <r>     7.5376    13.8906   630.8719 </r>
       <r>     7.6898    15.6904   633.2597 </r>
       <r>     7.8419    21.5576   636.5403 </r>
       <r>     7.9941    21.7076   639.8438 </r>
       <r>     8.1463    26.6486   643.8991 </r>
       <r>     8.2985    25.1593   647.7279 </r>
       <r>     8.4507    24.0815   651.3926 </r>
       <r>     8.6028    16.0032   653.8280 </r>
       <r>     8.7550    24.9054   657.6181 </r>
       <r>     8.9072    29.8119   662.1549 </r>
       <r>     9.0594    34.5905   667.4189 </r>
       <r>     9.2116    43.2048   673.9938 </r>
       <r>     9.3637    36.1537   679.4956 </r>
       <r>     9.5159    38.9401   685.4215 </r>
       <r>     9.6681    39.1021   691.3721 </r>
       <r>     9.8203    55.9934   699.8932 </r>
       <r>     9.9725    65.7021   709.8917 </r>
       <r>    10.1247    68.0579   720.2488 </r>
       <r>    10.2768    63.9399   729.9792 </r>
       <r>    10.4290    62.5851   739.5034 </r>
       <r>    10.5812    55.9900   748.0239 </r>
       <r>    10.7334    59.5140   757.0808 </r>
       <r>    10.8856    53.4030   765.2077 </r>
       <r>    11.0377    18.3372   767.9982 </r>
       <r>    11.1899     0.0118   768.0000 </r>
       <r>    11.3421     0.0000   768.0000 </r>
       <r>    11.4943     0.0000   768.0000 </r>
       <r>    11.6465     0.0000   768.0000 </r>
       <r>    11.7986     0.0000   768.0000 </r>
       <r>    11.9508     0.0000   768.0000 </r>
       <r>    12.1030     0.0000   768.0000 </r>
       <r>    12.2552     0.0000   768.0000 </r>
       <r>    12.4074     0.0000   768.0000 </r>
       <r>    12.5595     0.0000   768.0000 </r>
       <r>    12.7117     0.0000   768.0000 </r>
       <r>    12.8639     0.0000   768.0000 </r>
       <r>    13.0161     0.0000   768.0000 </r>
      </set>
     </set>
    </array>
   </total>
  </dos>
 </calculation>
 <structure name="finalpos" >
  <crystal>
   <varray name="basis" >
    <v>      11.24180674      -0.00449909       0.00000000 </v>
    <v>      -0.00446490      11.24635198       0.00000000 </v>
    <v>       0.00000000       0.00000000      15.83909792 </v>
   </varray>
   <i name="volume">   2002.52598993 </i>
   <varray name="rec_basis" >
    <v>       0.08895369       0.00003532       0.00000000 </v>
    <v>       0.00003559       0.08891774       0.00000000 </v>
    <v>       0.00000000       0.00000000       0.06313491 </v>
   </varray>
  </crystal>
  <varray name="positions" >
   <v>       0.99311007       0.25171311       0.12257504 </v>
   <v>       0.00061601       0.24818167       0.62192186 </v>
   <v>       0.99708196       0.74766009       0.12176992 </v>
   <v>       0.98973351       0.75182314       0.62154998 </v>
   <v>       0.50505973       0.25100700       0.12141861 </v>
   <v>       0.49755786       0.24868473       0.62546629 </v>
   <v>       0.50078727       0.74848463       0.12512845 </v>
   <v>       0.50844310       0.75088885       0.62085126 </v>
   <v>       0.99311007       0.25171311       0.37742496 </v>
   <v>       0.00061601       0.24818167       0.87807814 </v>
   <v>       0.99708196       0.74766009       0.37823008 </v>
   <v>       0.98973351       0.75182314       0.87845002 </v>
   <v>       0.50505973       0.25100700       0.37858139 </v>
   <v>       0.49755786       0.24868473       0.87453371 </v>
   <v>       0.50078727       0.74848463       0.37487155 </v>
   <v>       0.50844310       0.75088885       0.87914874 </v>
   <v>       0.24845247       0.98876785       0.11598355 </v>
   <v>       0.24856887       0.01210172       0.62493091 </v>
   <v>       0.24863756       0.51189047       0.12490978 </v>
   <v>       0.24860429       0.48893298       0.61582788 </v>
   <v>       0.75249947       0.99853504       0.12394986 </v>
   <v>       0.74992327       0.99734092       0.62257821 </v>
   <v>       0.74964721       0.50280575       0.12274568 </v>
   <v>       0.75285340       0.50577936       0.62383909 </v>
   <v>       0.24845247       0.98876785       0.38401645 </v>
   <v>       0.24856887       0.01210172       0.87506909 </v>
   <v>       0.24863756       0.51189047       0.37509022 </v>
   <v>       0.24860429       0.48893298       0.88417212 </v>
   <v>       0.75249947       0.99853504       0.37605014 </v>
   <v>       0.74992327       0.99734092       0.87742179 </v>
   <v>       0.74964721       0.50280575       0.37725432 </v>
   <v>       0.75285340       0.50577936       0.87616091 </v>
   <v>       0.24949037       0.74709057       0.50482646 </v>
   <v>       0.99857766       0.50196513       0.99881209 </v>
   <v>       0.99857766       0.50196513       0.50118791 </v>
   <v>       0.99880999       0.99987570       0.00126657 </v>
   <v>       0.24990349       0.25746449       0.75000000 </v>
   <v>       0.50033104       0.99950507       0.49852475 </v>
   <v>       0.50086667       0.50144279       0.99853720 </v>
   <v>       0.99635580       0.50247365       0.25000000 </v>
   <v>       0.74917652       0.24999878       0.99880916 </v>
   <v>       0.74917652       0.24999878       0.50119084 </v>
   <v>       0.50033104       0.99950507       0.00147525 </v>
   <v>       0.50086667       0.50144279       0.50146280 </v>
   <v>       0.24941167       0.24704493       0.49512279 </v>
   <v>       0.74949188       0.24995103       0.25000000 </v>
   <v>       0.75059923       0.24671802       0.75000000 </v>
   <v>       0.75026995       0.74713020       0.25000000 </v>
   <v>       0.99880999       0.99987570       0.49873343 </v>
   <v>       0.50314844       0.50188781       0.25000000 </v>
   <v>       0.74956915       0.75013724       0.75000000 </v>
   <v>       0.50338642       0.00232658       0.75000000 </v>
   <v>       0.24941167       0.24704493       0.00487721 </v>
   <v>       0.99647264       0.00272874       0.75000000 </v>
   <v>       0.24995569       0.75705381       0.25000000 </v>
   <v>       0.24949037       0.74709057       0.99517354 </v>
   <v>       0.51346013       0.99007971       0.25000000 </v>
   <v>       0.74895660       0.75018080       0.49842489 </v>
   <v>       0.25438668       0.27618106       0.25000000 </v>
   <v>       0.99234784       0.98541675       0.25000000 </v>
   <v>       0.51458056       0.48917499       0.75000000 </v>
   <v>       0.74895660       0.75018080       0.00157511 </v>
   <v>       0.25450480       0.77682568       0.75000000 </v>
   <v>       0.99204658       0.48469102       0.75000000 </v>
   <v>       0.01016439       0.00731544       0.12646069 </v>
   <v>       0.99763476       0.00389647       0.62496320 </v>
   <v>       0.99767287       0.50186370       0.12501056 </v>
   <v>       0.00950448       0.50458589       0.62629029 </v>
   <v>       0.48378216       0.00726803       0.12712985 </v>
   <v>       0.50392497       0.00449282       0.62480801 </v>
   <v>       0.50313478       0.50212472       0.12489099 </v>
   <v>       0.48447358       0.50482346       0.62702277 </v>
   <v>       0.01016439       0.00731544       0.37353931 </v>
   <v>       0.99763476       0.00389647       0.87503680 </v>
   <v>       0.99767287       0.50186370       0.37498944 </v>
   <v>       0.00950448       0.50458589       0.87370971 </v>
   <v>       0.48378216       0.00726803       0.37287015 </v>
   <v>       0.50392497       0.00449282       0.87519199 </v>
   <v>       0.50313478       0.50212472       0.37510901 </v>
   <v>       0.48447358       0.50482346       0.87297723 </v>
   <v>       0.24418860       0.21588113       0.36150685 </v>
   <v>       0.24953255       0.25325786       0.87736686 </v>
   <v>       0.24977620       0.75289866       0.37768424 </v>
   <v>       0.24395563       0.71642576       0.86164938 </v>
   <v>       0.74960018       0.25409995       0.37568810 </v>
   <v>       0.75001795       0.24512567       0.87517474 </v>
   <v>       0.75002000       0.74594316       0.37395537 </v>
   <v>       0.74942921       0.75355725       0.87465912 </v>
   <v>       0.24418860       0.21588113       0.13849315 </v>
   <v>       0.24953255       0.25325786       0.62263314 </v>
   <v>       0.24977620       0.75289866       0.12231576 </v>
   <v>       0.24395563       0.71642576       0.63835062 </v>
   <v>       0.74960018       0.25409995       0.12431190 </v>
   <v>       0.75001795       0.24512567       0.62482526 </v>
   <v>       0.75002000       0.74594316       0.12604463 </v>
   <v>       0.74942921       0.75355725       0.62534088 </v>
   <v>       0.60750130       0.14267468       0.25000000 </v>
   <v>       0.86935243       0.11566212       0.25000000 </v>
   <v>       0.13872617       0.39377381       0.25000000 </v>
   <v>       0.40005059       0.35489341       0.25000000 </v>
   <v>       0.64406740       0.39382849       0.25000000 </v>
   <v>       0.89245208       0.35947978       0.25000000 </v>
   <v>       0.10899519       0.64516161       0.25000000 </v>
   <v>       0.35978652       0.61168618       0.25000000 </v>
   <v>       0.60722751       0.64260382       0.25000000 </v>
   <v>       0.85695143       0.60587200       0.25000000 </v>
   <v>       0.14886229       0.90261181       0.25000000 </v>
   <v>       0.38909196       0.86363104       0.25000000 </v>
   <v>       0.64766170       0.89139200       0.25000000 </v>
   <v>       0.89317495       0.85182014       0.25000000 </v>
   <v>       0.13795843       0.11177871       0.50301010 </v>
   <v>       0.38579924       0.13756825       0.50175783 </v>
   <v>       0.63715141       0.11267937       0.49598108 </v>
   <v>       0.88750022       0.13852311       0.49806327 </v>
   <v>       0.11411746       0.36016516       0.49364813 </v>
   <v>       0.35981232       0.38366022       0.48881765 </v>
   <v>       0.61073285       0.36233548       0.50452136 </v>
   <v>       0.86337448       0.38676768       0.50310158 </v>
   <v>       0.13788786       0.61154644       0.49720173 </v>
   <v>       0.38528695       0.63707276       0.49847683 </v>
   <v>       0.63441237       0.61070176       0.50358873 </v>
   <v>       0.88821347       0.63524016       0.50179737 </v>
   <v>       0.11450856       0.86073964       0.50617139 </v>
   <v>       0.35974570       0.88427108       0.51128439 </v>
   <v>       0.60937471       0.86565007       0.49492255 </v>
   <v>       0.86616325       0.88856528       0.49682431 </v>
   <v>       0.10874104       0.14604244       0.75000000 </v>
   <v>       0.35968795       0.11224513       0.75000000 </v>
   <v>       0.60712524       0.14465872       0.75000000 </v>
   <v>       0.85556930       0.10581504       0.75000000 </v>
   <v>       0.14927595       0.40331425       0.75000000 </v>
   <v>       0.38970195       0.36326519       0.75000000 </v>
   <v>       0.65019614       0.39160517       0.75000000 </v>
   <v>       0.89379364       0.34971640       0.75000000 </v>
   <v>       0.60701618       0.64161910       0.75000000 </v>
   <v>       0.87077515       0.61528656       0.75000000 </v>
   <v>       0.13918266       0.89509158       0.75000000 </v>
   <v>       0.40034139       0.85577147       0.75000000 </v>
   <v>       0.64338594       0.89458724       0.75000000 </v>
   <v>       0.89273037       0.86059755       0.75000000 </v>
   <v>       0.13795843       0.11177871       0.99698990 </v>
   <v>       0.38579924       0.13756825       0.99824217 </v>
   <v>       0.63715141       0.11267937       0.00401892 </v>
   <v>       0.88750022       0.13852311       0.00193673 </v>
   <v>       0.11411746       0.36016516       0.00635187 </v>
   <v>       0.35981232       0.38366022       0.01118235 </v>
   <v>       0.61073285       0.36233548       0.99547864 </v>
   <v>       0.86337448       0.38676768       0.99689842 </v>
   <v>       0.13788786       0.61154644       0.00279827 </v>
   <v>       0.38528695       0.63707276       0.00152317 </v>
   <v>       0.63441237       0.61070176       0.99641127 </v>
   <v>       0.88821347       0.63524016       0.99820263 </v>
   <v>       0.11450856       0.86073964       0.99382861 </v>
   <v>       0.35974570       0.88427108       0.98871561 </v>
   <v>       0.60937471       0.86565007       0.00507745 </v>
   <v>       0.86616325       0.88856528       0.00317569 </v>
  </varray>
 </structure>
</modeling>
