       N       E                     dE             d eps       ncg     rms          rms(c)
DAV:   1    -0.990704494318E+03   -0.99070E+03   -0.34195E-02 13448   0.445E-01    0.632E-02
RMM:   2    -0.990704494808E+03   -0.48945E-06   -0.59299E-05  7110   0.138E-02    0.118E-01
RMM:   3    -0.990704493443E+03    0.13651E-05   -0.16943E-05  6813   0.778E-03    0.212E-02
RMM:   4    -0.990704493976E+03   -0.53321E-06   -0.68063E-06  5256   0.319E-03    0.144E-02
RMM:   5    -0.990704494346E+03   -0.36981E-06   -0.36231E-06  4701   0.337E-03    0.538E-03
RMM:   6    -0.990704494904E+03   -0.55820E-06   -0.25098E-06  3572   0.239E-03    0.599E-03
RMM:   7    -0.990704495327E+03   -0.42249E-06   -0.14946E-06  3328   0.244E-03    0.399E-03
RMM:   8    -0.990704495893E+03   -0.56680E-06   -0.13829E-06  3262   0.228E-03
   1 F= -.99070450E+03 E0= -.99069737E+03  d E =-.990704E+03  mag=   116.0000
       N       E                     dE             d eps       ncg     rms          rms(c)
DAV:   1    -0.990703845177E+03    0.65015E-03   -0.44574E-01 12544   0.792E-01    0.348E-01
RMM:   2    -0.990705736420E+03   -0.18912E-02   -0.13695E-02 12553   0.170E-01    0.282E-01
RMM:   3    -0.990705904986E+03   -0.16857E-03   -0.76263E-04 10703   0.469E-02    0.145E-01
RMM:   4    -0.990705866797E+03    0.38189E-04   -0.90927E-05  7512   0.162E-02    0.943E-02
RMM:   5    -0.990705843196E+03    0.23601E-04   -0.12546E-04  7381   0.136E-02    0.439E-02
RMM:   6    -0.990705845489E+03   -0.22933E-05   -0.24682E-05  7072   0.893E-03    0.266E-02
RMM:   7    -0.990705845543E+03   -0.53464E-07   -0.87292E-06  6741   0.464E-03    0.131E-02
RMM:   8    -0.990705845476E+03    0.67332E-07   -0.39998E-06  5736   0.358E-03
   2 F= -.99070585E+03 E0= -.99069859E+03  d E =-.134958E-02  mag=   116.0000
       N       E                     dE             d eps       ncg     rms          rms(c)
DAV:   1    -0.990705735584E+03    0.10996E-03   -0.43059E-02 12384   0.246E-01    0.109E-01
RMM:   2    -0.990705920796E+03   -0.18521E-03   -0.13381E-03 12079   0.529E-02    0.874E-02
RMM:   3    -0.990705936583E+03   -0.15788E-04   -0.64284E-05  7085   0.160E-02    0.476E-02
RMM:   4    -0.990705935128E+03    0.14555E-05   -0.16198E-05  6777   0.698E-03    0.296E-02
RMM:   5    -0.990705933203E+03    0.19242E-05   -0.13175E-05  6296   0.461E-03    0.185E-02
RMM:   6    -0.990705933491E+03   -0.28778E-06   -0.33935E-06  5317   0.342E-03    0.881E-03
RMM:   7    -0.990705933637E+03   -0.14550E-06   -0.80821E-07  2988   0.205E-03    0.397E-03
RMM:   8    -0.990705933681E+03   -0.43976E-07   -0.40411E-07  2726   0.211E-03
   3 F= -.99070593E+03 E0= -.99069864E+03  d E =-.143779E-02  mag=   116.0000
       N       E                     dE             d eps       ncg     rms          rms(c)
DAV:   1    -0.990705760286E+03    0.17335E-03   -0.34656E-01 12592   0.704E-01    0.235E-01
RMM:   2    -0.990706914533E+03   -0.11542E-02   -0.95585E-03 12674   0.136E-01    0.159E-01
RMM:   3    -0.990706985640E+03   -0.71107E-04   -0.48089E-04  9827   0.386E-02    0.879E-02
RMM:   4    -0.990706966327E+03    0.19313E-04   -0.74081E-05  7229   0.134E-02    0.551E-02
RMM:   5    -0.990706957105E+03    0.92220E-05   -0.55650E-05  7186   0.101E-02    0.328E-02
RMM:   6    -0.990706959178E+03   -0.20728E-05   -0.17991E-05  7007   0.701E-03    0.131E-02
RMM:   7    -0.990706960017E+03   -0.83892E-06   -0.77793E-06  6325   0.435E-03    0.106E-02
RMM:   8    -0.990706960420E+03   -0.40323E-06   -0.41737E-06  5266   0.341E-03
   4 F= -.99070696E+03 E0= -.99069964E+03  d E =-.102674E-02  mag=   116.0000
