<?xml version="1.0" encoding="ISO-8859-1"?>
<modeling>
 <generator>
  <i name="program" type="string">vasp </i>
  <i name="version" type="string">5.4.1  </i>
  <i name="subversion" type="string">05Feb16 (build Jan 25 2017 20:16:33) complex                          parallel </i>
  <i name="platform" type="string">BWXE6 </i>
  <i name="date" type="string">2019 07 09 </i>
  <i name="time" type="string">13:58:34 </i>
 </generator>
 <incar>
  <i type="string" name="SYSTEM"> STF</i>
  <i type="string" name="PREC">normal</i>
  <i type="string" name="ALGO"> Fast</i>
  <i type="int" name="ISPIN">     2</i>
  <i type="int" name="NELM">    40</i>
  <i type="int" name="NELMIN">     8</i>
  <i type="int" name="IBRION">     2</i>
  <i name="EDIFF">      0.00010000</i>
  <i name="EDIFFG">     -0.03000000</i>
  <i type="int" name="NSW">    30</i>
  <i type="int" name="ISIF">     3</i>
  <i name="ENCUT">    520.00000000</i>
  <i type="int" name="NBANDS">   768</i>
  <v name="MAGMOM">      0.60000000      0.60000000      0.60000000      0.60000000      0.60000000      0.60000000      0.60000000      0.60000000      0.60000000      0.60000000      0.60000000      0.60000000      0.60000000      0.60000000      0.60000000      0.60000000      0.60000000      0.60000000      0.60000000      0.60000000
      0.60000000      0.60000000      0.60000000      0.60000000      0.60000000      0.60000000      0.60000000      0.60000000      0.60000000      0.60000000      0.60000000      0.60000000      0.60000000      0.60000000      0.60000000      0.60000000      0.60000000      0.60000000      0.60000000      0.60000000
      5.00000000      5.00000000      5.00000000      5.00000000      5.00000000      5.00000000      5.00000000      5.00000000      5.00000000      5.00000000      5.00000000      5.00000000      5.00000000      5.00000000      5.00000000      5.00000000      5.00000000      5.00000000      5.00000000      5.00000000
      5.00000000      5.00000000      5.00000000      5.00000000      0.60000000      0.60000000      0.60000000      0.60000000      0.60000000      0.60000000      0.60000000      0.60000000      0.60000000      0.60000000      0.60000000      0.60000000      0.60000000      0.60000000      0.60000000      0.60000000
      0.60000000      0.60000000      0.60000000      0.60000000      0.60000000      0.60000000      0.60000000      0.60000000      0.60000000      0.60000000      0.60000000      0.60000000      0.60000000      0.60000000      0.60000000      0.60000000      0.60000000      0.60000000      0.60000000      0.60000000
      0.60000000      0.60000000      0.60000000      0.60000000      0.60000000      0.60000000      0.60000000      0.60000000      0.60000000      0.60000000      0.60000000      0.60000000      0.60000000      0.60000000      0.60000000      0.60000000      0.60000000      0.60000000      0.60000000      0.60000000
      0.60000000      0.60000000      0.60000000      0.60000000      0.60000000      0.60000000      0.60000000      0.60000000      0.60000000      0.60000000      0.60000000      0.60000000      0.60000000      0.60000000      0.60000000      0.60000000      0.60000000      0.60000000      0.60000000      0.60000000
      0.60000000      0.60000000      0.60000000      0.60000000      0.60000000      0.60000000      0.60000000      0.60000000</v>
  <i type="string" name="LREAL"> Auto</i>
  <i type="int" name="ISMEAR">     0</i>
  <i name="SIGMA">      0.05000000</i>
  <i type="int" name="LMAXMIX">     4</i>
  <v type="int" name="KPOINT_BSE">    -1     0     0     0</v>
  <i type="int" name="NELM">    40</i>
  <i type="logical" name="LDAU"> T  </i>
  <v type="int" name="LDAUTYPE">     2</v>
  <v type="int" name="LDAUL">     0     2     2     0</v>
  <v name="LDAUU">      0.00000000      3.00000000      5.00000000      0.00000000</v>
  <v name="LDAUJ">      0.00000000      0.00000000      0.00000000      0.00000000</v>
  <i type="int" name="LDAUPRINT">     1</i>
 </incar>
 <kpoints>
  <generation param="Monkhorst-Pack">
   <v type="int" name="divisions">       2        2        2 </v>
   <v name="usershift">      0.00000000       0.00000000       0.00000000 </v>
   <v name="genvec1">      0.50000000      -0.00000000       0.00000000 </v>
   <v name="genvec2">      0.00000000       0.50000000      -0.00000000 </v>
   <v name="genvec3">      0.00000000       0.00000000       0.50000000 </v>
   <v name="shift">      0.50000000       0.50000000       0.50000000 </v>
  </generation>
  <varray name="kpointlist" >
   <v>       0.25000000       0.25000000       0.25000000 </v>
   <v>      -0.25000000       0.25000000       0.25000000 </v>
   <v>       0.25000000      -0.25000000       0.25000000 </v>
   <v>      -0.25000000      -0.25000000       0.25000000 </v>
  </varray>
  <varray name="weights" >
   <v>       0.25000000 </v>
   <v>       0.25000000 </v>
   <v>       0.25000000 </v>
   <v>       0.25000000 </v>
  </varray>
 </kpoints>
 <parameters>
  <separator name="general" >
   <i type="string" name="SYSTEM">STF</i>
   <i type="logical" name="LCOMPAT"> F  </i>
  </separator>
  <separator name="electronic" >
   <i type="string" name="PREC">normal</i>
   <i name="ENMAX">    520.00000000</i>
   <i name="ENAUG">    605.39200000</i>
   <i name="EDIFF">      0.00010000</i>
   <i type="int" name="IALGO">    68</i>
   <i type="int" name="IWAVPR">    11</i>
   <i type="int" name="NBANDS">   768</i>
   <i name="NELECT">   1048.00000000</i>
   <i type="int" name="TURBO">     0</i>
   <i type="int" name="IRESTART">     0</i>
   <i type="int" name="NREBOOT">     0</i>
   <i type="int" name="NMIN">     0</i>
   <i name="EREF">      0.00000000</i>
   <separator name="electronic smearing" >
    <i type="int" name="ISMEAR">     0</i>
    <i name="SIGMA">      0.05000000</i>
    <i name="KSPACING">      0.50000000</i>
    <i type="logical" name="KGAMMA"> T  </i>
   </separator>
   <separator name="electronic projectors" >
    <i type="logical" name="LREAL"> T  </i>
    <v name="ROPT">     -0.00050000     -0.00050000     -0.00050000     -0.00050000</v>
    <i type="int" name="LMAXPAW">  -100</i>
    <i type="int" name="LMAXMIX">     4</i>
    <i type="logical" name="NLSPLINE"> F  </i>
   </separator>
   <separator name="electronic startup" >
    <i type="int" name="ISTART">     1</i>
    <i type="int" name="ICHARG">     0</i>
    <i type="int" name="INIWAV">     1</i>
   </separator>
   <separator name="electronic spin" >
    <i type="int" name="ISPIN">     2</i>
    <i type="logical" name="LNONCOLLINEAR"> F  </i>
    <v name="MAGMOM">      0.60000000      0.60000000      0.60000000      0.60000000      0.60000000      0.60000000      0.60000000      0.60000000      0.60000000      0.60000000      0.60000000      0.60000000      0.60000000      0.60000000      0.60000000      0.60000000      0.60000000      0.60000000      0.60000000      0.60000000
      0.60000000      0.60000000      0.60000000      0.60000000      0.60000000      0.60000000      0.60000000      0.60000000      0.60000000      0.60000000      0.60000000      0.60000000      0.60000000      0.60000000      0.60000000      0.60000000      0.60000000      0.60000000      0.60000000      0.60000000
      5.00000000      5.00000000      5.00000000      5.00000000      5.00000000      5.00000000      5.00000000      5.00000000      5.00000000      5.00000000      5.00000000      5.00000000      5.00000000      5.00000000      5.00000000      5.00000000      5.00000000      5.00000000      5.00000000      5.00000000
      5.00000000      5.00000000      5.00000000      5.00000000      0.60000000      0.60000000      0.60000000      0.60000000      0.60000000      0.60000000      0.60000000      0.60000000      0.60000000      0.60000000      0.60000000      0.60000000      0.60000000      0.60000000      0.60000000      0.60000000
      0.60000000      0.60000000      0.60000000      0.60000000      0.60000000      0.60000000      0.60000000      0.60000000      0.60000000      0.60000000      0.60000000      0.60000000      0.60000000      0.60000000      0.60000000      0.60000000      0.60000000      0.60000000      0.60000000      0.60000000
      0.60000000      0.60000000      0.60000000      0.60000000      0.60000000      0.60000000      0.60000000      0.60000000      0.60000000      0.60000000      0.60000000      0.60000000      0.60000000      0.60000000      0.60000000      0.60000000      0.60000000      0.60000000      0.60000000      0.60000000
      0.60000000      0.60000000      0.60000000      0.60000000      0.60000000      0.60000000      0.60000000      0.60000000      0.60000000      0.60000000      0.60000000      0.60000000      0.60000000      0.60000000      0.60000000      0.60000000      0.60000000      0.60000000      0.60000000      0.60000000
      0.60000000      0.60000000      0.60000000      0.60000000      0.60000000      0.60000000      0.60000000      0.60000000</v>
    <i name="NUPDOWN">     -1.00000000</i>
    <i type="logical" name="LSORBIT"> F  </i>
    <v name="SAXIS">      0.00000000      0.00000000      1.00000000</v>
    <i type="logical" name="LSPIRAL"> F  </i>
    <v name="QSPIRAL">      0.00000000      0.00000000      0.00000000</v>
    <i type="logical" name="LZEROZ"> F  </i>
   </separator>
   <separator name="electronic exchange-correlation" >
    <i type="logical" name="LASPH"> F  </i>
    <i type="logical" name="LMETAGGA"> F  </i>
   </separator>
   <separator name="electronic convergence" >
    <i type="int" name="NELM">    40</i>
    <i type="int" name="NELMDL">     0</i>
    <i type="int" name="NELMIN">     8</i>
    <i name="ENINI">    520.00000000</i>
    <separator name="electronic convergence detail" >
     <i type="logical" name="LDIAG"> T  </i>
     <i type="logical" name="LSUBROT"> F  </i>
     <i name="WEIMIN">      0.00100000</i>
     <i name="EBREAK">      0.00000003</i>
     <i name="DEPER">      0.30000000</i>
     <i type="int" name="NRMM">     4</i>
     <i name="TIME">      0.40000000</i>
    </separator>
   </separator>
   <separator name="electronic mixer" >
    <i name="AMIX">      0.40000000</i>
    <i name="BMIX">      1.00000000</i>
    <i name="AMIN">      0.10000000</i>
    <i name="AMIX_MAG">      1.60000000</i>
    <i name="BMIX_MAG">      1.00000000</i>
    <separator name="electronic mixer details" >
     <i type="int" name="IMIX">     4</i>
     <i type="logical" name="MIXFIRST"> F  </i>
     <i type="int" name="MAXMIX">   -45</i>
     <i name="WC">    100.00000000</i>
     <i type="int" name="INIMIX">     1</i>
     <i type="int" name="MIXPRE">     1</i>
     <i type="int" name="MREMOVE">     5</i>
    </separator>
   </separator>
   <separator name="electronic dipolcorrection" >
    <i type="logical" name="LDIPOL"> F  </i>
    <i type="logical" name="LMONO"> F  </i>
    <i type="int" name="IDIPOL">     0</i>
    <i name="EPSILON">      1.00000000</i>
    <v name="DIPOL">   -100.00000000   -100.00000000   -100.00000000</v>
    <i name="EFIELD">      0.00000000</i>
   </separator>
  </separator>
  <separator name="grids" >
   <i type="int" name="NGX">    64</i>
   <i type="int" name="NGY">    64</i>
   <i type="int" name="NGZ">    90</i>
   <i type="int" name="NGXF">   128</i>
   <i type="int" name="NGYF">   128</i>
   <i type="int" name="NGZF">   180</i>
   <i type="logical" name="ADDGRID"> F  </i>
  </separator>
  <separator name="ionic" >
   <i type="int" name="NSW">    30</i>
   <i type="int" name="IBRION">     2</i>
   <i type="int" name="ISIF">     3</i>
   <i name="PSTRESS">      0.00000000</i>
   <i name="EDIFFG">     -0.03000000</i>
   <i type="int" name="NFREE">     1</i>
   <i name="POTIM">      0.50000000</i>
   <i name="SMASS">     -3.00000000</i>
   <i name="SCALEE">      1.00000000</i>
  </separator>
  <separator name="ionic md" >
   <i name="TEBEG">      0.00010000</i>
   <i name="TEEND">      0.00010000</i>
   <i type="int" name="NBLOCK">     1</i>
   <i type="int" name="KBLOCK">    30</i>
   <i type="int" name="NPACO">   256</i>
   <i name="APACO">     16.00000000</i>
  </separator>
  <separator name="symmetry" >
   <i type="int" name="ISYM">     2</i>
   <i name="SYMPREC">      0.00001000</i>
  </separator>
  <separator name="dos" >
   <i type="logical" name="LORBIT"> F  </i>
   <v name="RWIGS">     -1.00000000     -1.00000000     -1.00000000     -1.00000000</v>
   <i type="int" name="NEDOS">   301</i>
   <i name="EMIN">     10.00000000</i>
   <i name="EMAX">    -10.00000000</i>
   <i name="EFERMI">      0.00000000</i>
  </separator>
  <separator name="writing" >
   <i type="int" name="NWRITE">     2</i>
   <i type="logical" name="LWAVE"> T  </i>
   <i type="logical" name="LCHARG"> T  </i>
   <i type="logical" name="LPARD"> F  </i>
   <i type="logical" name="LVTOT"> F  </i>
   <i type="logical" name="LVHAR"> F  </i>
   <i type="logical" name="LELF"> F  </i>
   <i type="logical" name="LOPTICS"> F  </i>
   <v name="STM">      0.00000000      0.00000000      0.00000000      0.00000000      0.00000000      0.00000000      0.00000000</v>
  </separator>
  <separator name="performance" >
   <i type="int" name="NPAR">     2</i>
   <i type="int" name="NSIM">     4</i>
   <i type="int" name="NBLK">    -1</i>
   <i type="logical" name="LPLANE"> T  </i>
   <i type="logical" name="LSCALAPACK"> T  </i>
   <i type="logical" name="LSCAAWARE"> F  </i>
   <i type="logical" name="LSCALU"> F  </i>
   <i type="logical" name="LASYNC"> F  </i>
   <i type="logical" name="LORBITALREAL"> F  </i>
  </separator>
  <separator name="miscellaneous" >
   <i type="int" name="IDIOT">     3</i>
   <i type="logical" name="LMUSIC"> F  </i>
   <v name="POMASS">     87.62000000     47.88000000     55.84700000     16.00000000</v>
   <v name="DARWINR">      0.00000000      0.00000000      0.00000000      0.00000000</v>
   <v name="DARWINV">      1.00000000      1.00000000      1.00000000      1.00000000</v>
   <i type="logical" name="LCORR"> T  </i>
  </separator>
  <i type="logical" name="GGA_COMPAT"> T  </i>
  <i type="logical" name="LBERRY"> F  </i>
  <i type="int" name="ICORELEVEL">     0</i>
  <i type="logical" name="LDAU"> T  </i>
  <v type="int" name="LDAUTYPE">     2</v>
  <v type="int" name="LDAUL">     0</v>
  <v name="LDAUU">      0.00000000</v>
  <v name="LDAUJ">      0.00000000</v>
  <i type="int" name="LDAUPRINT">     1</i>
  <i type="int" name="I_CONSTRAINED_M">     0</i>
  <separator name="electronic exchange-correlation" >
   <i type="string" name="GGA">--</i>
   <i type="int" name="VOSKOWN">     0</i>
   <i type="logical" name="LHFCALC"> F  </i>
   <i type="string" name="PRECFOCK"></i>
   <i type="logical" name="LSYMGRAD"> F  </i>
   <i type="logical" name="LHFONE"> F  </i>
   <i type="logical" name="LRHFCALC"> F  </i>
   <i type="logical" name="LTHOMAS"> F  </i>
   <i type="logical" name="LMODELHF"> F  </i>
   <i name="ENCUT4O">     -1.00000000</i>
   <i type="int" name="EXXOEP">     0</i>
   <i type="int" name="FOURORBIT">     0</i>
   <i name="AEXX">      0.00000000</i>
   <i name="HFALPHA">      0.00000000</i>
   <i name="MCALPHA">      0.00000000</i>
   <i name="ALDAX">      1.00000000</i>
   <i name="AGGAX">      1.00000000</i>
   <i name="ALDAC">      1.00000000</i>
   <i name="AGGAC">      1.00000000</i>
   <i type="int" name="NKREDX">     1</i>
   <i type="int" name="NKREDY">     1</i>
   <i type="int" name="NKREDZ">     1</i>
   <i type="logical" name="SHIFTRED"> F  </i>
   <i type="logical" name="ODDONLY"> F  </i>
   <i type="logical" name="EVENONLY"> F  </i>
   <i type="int" name="LMAXFOCK">     0</i>
   <i type="int" name="NMAXFOCKAE">     0</i>
   <i type="logical" name="LFOCKAEDFT"> F  </i>
   <i name="HFSCREEN">      0.00000000</i>
   <i name="HFSCREENC">      0.00000000</i>
   <i type="int" name="NBANDSGWLOW">     0</i>
  </separator>
  <separator name="vdW DFT" >
   <i type="logical" name="LUSE_VDW"> F  </i>
   <i name="Zab_VDW">     -0.84910000</i>
   <i name="PARAM1">      0.12340000</i>
   <i name="PARAM2">      1.00000000</i>
   <i name="PARAM3">      0.00000000</i>
  </separator>
  <separator name="model GW" >
   <i type="int" name="MODEL_GW">     0</i>
   <i name="MODEL_EPS0">      8.02009557</i>
   <i name="MODEL_ALPHA">      1.00000000</i>
  </separator>
  <separator name="linear response parameters" >
   <i type="logical" name="LEPSILON"> F  </i>
   <i type="logical" name="LRPA"> F  </i>
   <i type="logical" name="LNABLA"> F  </i>
   <i type="logical" name="LVEL"> F  </i>
   <i type="int" name="KINTER">     0</i>
   <i name="CSHIFT">      0.10000000</i>
   <i name="OMEGAMAX">     -1.00000000</i>
   <i name="DEG_THRESHOLD">      0.00200000</i>
  </separator>
  <separator name="orbital magnetization" >
   <i type="logical" name="NUCIND"> F  </i>
   <v name="MAGPOS">      0.00000000      0.00000000      0.00000000</v>
   <i type="logical" name="LNICSALL"> T  </i>
   <i type="logical" name="ORBITALMAG"> F  </i>
   <i type="logical" name="LMAGBLOCH"> F  </i>
   <i type="logical" name="LCHIMAG"> F  </i>
   <i type="logical" name="LGAUGE"> T  </i>
   <i type="int" name="MAGATOM">     0</i>
   <v name="MAGDIPOL">      0.00000000      0.00000000      0.00000000</v>
   <v name="AVECCONST">      0.00000000      0.00000000      0.00000000</v>
  </separator>
  <separator name="response functions" >
   <i type="logical" name="LADDER"> F  </i>
   <i type="logical" name="LFXC"> F  </i>
   <i type="logical" name="LHARTREE"> T  </i>
   <i type="int" name="IBSE">     0</i>
   <v type="int" name="KPOINT">    -1     0     0     0</v>
   <i type="logical" name="LTCTE"> F  </i>
   <i type="logical" name="LTETE"> F  </i>
   <i type="logical" name="LTRIPLET"> F  </i>
   <i type="logical" name="LFXCEPS"> F  </i>
   <i type="logical" name="LFXHEG"> F  </i>
   <i type="int" name="NATURALO">     0</i>
   <i type="logical" name="L2ORDER"> F  </i>
   <i type="logical" name="LUSEW"> F  </i>
   <i name="ENCUTGW">     -2.00000000</i>
   <i name="ENCUTGWSOFT">     -2.00000000</i>
   <i name="ENCUTLF">     -1.00000000</i>
   <i type="int" name="LMAXMP2">    -1</i>
   <i name="SCISSOR">      0.00000000</i>
   <i type="int" name="NOMEGA">     0</i>
   <i type="int" name="NOMEGAR">     0</i>
   <i type="int" name="NBANDSGW">    -1</i>
   <i type="int" name="NBANDSO">    -1</i>
   <i type="int" name="NBANDSV">    -1</i>
   <i type="int" name="NELM">    40</i>
   <i type="int" name="NELMHF">     1</i>
   <i type="int" name="DIM">     3</i>
   <i type="int" name="ANTIRES">     0</i>
   <i name="OMEGAMAX">    -30.00000000</i>
   <i name="OMEGAMIN">    -30.00000000</i>
   <i name="OMEGATL">   -200.00000000</i>
   <i type="int" name="OMEGAGRID">     0</i>
   <i name="CSHIFT">     -0.10000000</i>
   <i type="logical" name="SELFENERGY"> F  </i>
   <i type="logical" name="LSPECTRAL"> F  </i>
   <i type="logical" name="LSPECTRALGW"> F  </i>
   <i type="logical" name="LSINGLES"> F  </i>
   <i type="logical" name="LFERMIGW"> F  </i>
   <i type="logical" name="ODDONLYGW"> F  </i>
   <i type="logical" name="EVENONLYGW"> F  </i>
   <i type="int" name="NKREDLFX">     1</i>
   <i type="int" name="NKREDLFY">     1</i>
   <i type="int" name="NKREDLFZ">     1</i>
   <i type="int" name="MAXMEM">  1800</i>
   <i type="int" name="TELESCOPE">     0</i>
   <i type="int" name="TAUPAR">     1</i>
   <i type="int" name="OMEGAPAR">    -1</i>
   <i name="LAMBDA">      1.00000000</i>
  </separator>
  <separator name="External order field" >
   <i name="OFIELD_KAPPA">      0.00000000</i>
   <v name="OFIELD_K">      0.00000000      0.00000000      0.00000000</v>
   <i name="OFIELD_Q6_NEAR">      0.00000000</i>
   <i name="OFIELD_Q6_FAR">      0.00000000</i>
   <i name="OFIELD_A">      0.00000000</i>
  </separator>
 </parameters>
 <atominfo>
  <atoms>     148 </atoms>
  <types>       4 </types>
  <array name="atoms" >
   <dimension dim="1">ion</dimension>
   <field type="string">element</field>
   <field type="int">atomtype</field>
   <set>
    <rc><c>Sr</c><c>   1</c></rc>
    <rc><c>Sr</c><c>   1</c></rc>
    <rc><c>Sr</c><c>   1</c></rc>
    <rc><c>Sr</c><c>   1</c></rc>
    <rc><c>Sr</c><c>   1</c></rc>
    <rc><c>Sr</c><c>   1</c></rc>
    <rc><c>Sr</c><c>   1</c></rc>
    <rc><c>Sr</c><c>   1</c></rc>
    <rc><c>Sr</c><c>   1</c></rc>
    <rc><c>Sr</c><c>   1</c></rc>
    <rc><c>Sr</c><c>   1</c></rc>
    <rc><c>Sr</c><c>   1</c></rc>
    <rc><c>Sr</c><c>   1</c></rc>
    <rc><c>Sr</c><c>   1</c></rc>
    <rc><c>Sr</c><c>   1</c></rc>
    <rc><c>Sr</c><c>   1</c></rc>
    <rc><c>Sr</c><c>   1</c></rc>
    <rc><c>Sr</c><c>   1</c></rc>
    <rc><c>Sr</c><c>   1</c></rc>
    <rc><c>Sr</c><c>   1</c></rc>
    <rc><c>Sr</c><c>   1</c></rc>
    <rc><c>Sr</c><c>   1</c></rc>
    <rc><c>Sr</c><c>   1</c></rc>
    <rc><c>Sr</c><c>   1</c></rc>
    <rc><c>Sr</c><c>   1</c></rc>
    <rc><c>Sr</c><c>   1</c></rc>
    <rc><c>Sr</c><c>   1</c></rc>
    <rc><c>Sr</c><c>   1</c></rc>
    <rc><c>Sr</c><c>   1</c></rc>
    <rc><c>Sr</c><c>   1</c></rc>
    <rc><c>Sr</c><c>   1</c></rc>
    <rc><c>Sr</c><c>   1</c></rc>
    <rc><c>Ti</c><c>   2</c></rc>
    <rc><c>Ti</c><c>   2</c></rc>
    <rc><c>Ti</c><c>   2</c></rc>
    <rc><c>Ti</c><c>   2</c></rc>
    <rc><c>Ti</c><c>   2</c></rc>
    <rc><c>Ti</c><c>   2</c></rc>
    <rc><c>Ti</c><c>   2</c></rc>
    <rc><c>Ti</c><c>   2</c></rc>
    <rc><c>Fe</c><c>   3</c></rc>
    <rc><c>Fe</c><c>   3</c></rc>
    <rc><c>Fe</c><c>   3</c></rc>
    <rc><c>Fe</c><c>   3</c></rc>
    <rc><c>Fe</c><c>   3</c></rc>
    <rc><c>Fe</c><c>   3</c></rc>
    <rc><c>Fe</c><c>   3</c></rc>
    <rc><c>Fe</c><c>   3</c></rc>
    <rc><c>Fe</c><c>   3</c></rc>
    <rc><c>Fe</c><c>   3</c></rc>
    <rc><c>Fe</c><c>   3</c></rc>
    <rc><c>Fe</c><c>   3</c></rc>
    <rc><c>Fe</c><c>   3</c></rc>
    <rc><c>Fe</c><c>   3</c></rc>
    <rc><c>Fe</c><c>   3</c></rc>
    <rc><c>Fe</c><c>   3</c></rc>
    <rc><c>Fe</c><c>   3</c></rc>
    <rc><c>Fe</c><c>   3</c></rc>
    <rc><c>Fe</c><c>   3</c></rc>
    <rc><c>Fe</c><c>   3</c></rc>
    <rc><c>Fe</c><c>   3</c></rc>
    <rc><c>Fe</c><c>   3</c></rc>
    <rc><c>Fe</c><c>   3</c></rc>
    <rc><c>Fe</c><c>   3</c></rc>
    <rc><c>O </c><c>   4</c></rc>
    <rc><c>O </c><c>   4</c></rc>
    <rc><c>O </c><c>   4</c></rc>
    <rc><c>O </c><c>   4</c></rc>
    <rc><c>O </c><c>   4</c></rc>
    <rc><c>O </c><c>   4</c></rc>
    <rc><c>O </c><c>   4</c></rc>
    <rc><c>O </c><c>   4</c></rc>
    <rc><c>O </c><c>   4</c></rc>
    <rc><c>O </c><c>   4</c></rc>
    <rc><c>O </c><c>   4</c></rc>
    <rc><c>O </c><c>   4</c></rc>
    <rc><c>O </c><c>   4</c></rc>
    <rc><c>O </c><c>   4</c></rc>
    <rc><c>O </c><c>   4</c></rc>
    <rc><c>O </c><c>   4</c></rc>
    <rc><c>O </c><c>   4</c></rc>
    <rc><c>O </c><c>   4</c></rc>
    <rc><c>O </c><c>   4</c></rc>
    <rc><c>O </c><c>   4</c></rc>
    <rc><c>O </c><c>   4</c></rc>
    <rc><c>O </c><c>   4</c></rc>
    <rc><c>O </c><c>   4</c></rc>
    <rc><c>O </c><c>   4</c></rc>
    <rc><c>O </c><c>   4</c></rc>
    <rc><c>O </c><c>   4</c></rc>
    <rc><c>O </c><c>   4</c></rc>
    <rc><c>O </c><c>   4</c></rc>
    <rc><c>O </c><c>   4</c></rc>
    <rc><c>O </c><c>   4</c></rc>
    <rc><c>O </c><c>   4</c></rc>
    <rc><c>O </c><c>   4</c></rc>
    <rc><c>O </c><c>   4</c></rc>
    <rc><c>O </c><c>   4</c></rc>
    <rc><c>O </c><c>   4</c></rc>
    <rc><c>O </c><c>   4</c></rc>
    <rc><c>O </c><c>   4</c></rc>
    <rc><c>O </c><c>   4</c></rc>
    <rc><c>O </c><c>   4</c></rc>
    <rc><c>O </c><c>   4</c></rc>
    <rc><c>O </c><c>   4</c></rc>
    <rc><c>O </c><c>   4</c></rc>
    <rc><c>O </c><c>   4</c></rc>
    <rc><c>O </c><c>   4</c></rc>
    <rc><c>O </c><c>   4</c></rc>
    <rc><c>O </c><c>   4</c></rc>
    <rc><c>O </c><c>   4</c></rc>
    <rc><c>O </c><c>   4</c></rc>
    <rc><c>O </c><c>   4</c></rc>
    <rc><c>O </c><c>   4</c></rc>
    <rc><c>O </c><c>   4</c></rc>
    <rc><c>O </c><c>   4</c></rc>
    <rc><c>O </c><c>   4</c></rc>
    <rc><c>O </c><c>   4</c></rc>
    <rc><c>O </c><c>   4</c></rc>
    <rc><c>O </c><c>   4</c></rc>
    <rc><c>O </c><c>   4</c></rc>
    <rc><c>O </c><c>   4</c></rc>
    <rc><c>O </c><c>   4</c></rc>
    <rc><c>O </c><c>   4</c></rc>
    <rc><c>O </c><c>   4</c></rc>
    <rc><c>O </c><c>   4</c></rc>
    <rc><c>O </c><c>   4</c></rc>
    <rc><c>O </c><c>   4</c></rc>
    <rc><c>O </c><c>   4</c></rc>
    <rc><c>O </c><c>   4</c></rc>
    <rc><c>O </c><c>   4</c></rc>
    <rc><c>O </c><c>   4</c></rc>
    <rc><c>O </c><c>   4</c></rc>
    <rc><c>O </c><c>   4</c></rc>
    <rc><c>O </c><c>   4</c></rc>
    <rc><c>O </c><c>   4</c></rc>
    <rc><c>O </c><c>   4</c></rc>
    <rc><c>O </c><c>   4</c></rc>
    <rc><c>O </c><c>   4</c></rc>
    <rc><c>O </c><c>   4</c></rc>
    <rc><c>O </c><c>   4</c></rc>
    <rc><c>O </c><c>   4</c></rc>
    <rc><c>O </c><c>   4</c></rc>
    <rc><c>O </c><c>   4</c></rc>
    <rc><c>O </c><c>   4</c></rc>
    <rc><c>O </c><c>   4</c></rc>
    <rc><c>O </c><c>   4</c></rc>
    <rc><c>O </c><c>   4</c></rc>
   </set>
  </array>
  <array name="atomtypes" >
   <dimension dim="1">type</dimension>
   <field type="int">atomspertype</field>
   <field type="string">element</field>
   <field>mass</field>
   <field>valence</field>
   <field type="string">pseudopotential</field>
   <set>
    <rc><c>  32</c><c>Sr</c><c>     87.62000000</c><c>     10.00000000</c><c>  PAW_PBE Sr_sv 07Sep2000               </c></rc>
    <rc><c>   8</c><c>Ti</c><c>     47.88000000</c><c>      4.00000000</c><c>  PAW_PBE Ti 08Apr2002                  </c></rc>
    <rc><c>  24</c><c>Fe</c><c>     55.84700000</c><c>      8.00000000</c><c>  PAW_PBE Fe 06Sep2000                  </c></rc>
    <rc><c>  84</c><c>O </c><c>     16.00000000</c><c>      6.00000000</c><c>  PAW_PBE O 08Apr2002                   </c></rc>
   </set>
  </array>
 </atominfo>
 <structure name="initialpos" >
  <crystal>
   <varray name="basis" >
    <v>      11.21441056      -0.02607929       0.02723548 </v>
    <v>      -0.02610353      11.20261131       0.03856235 </v>
    <v>       0.03865970       0.05478880      15.74724014 </v>
   </varray>
   <i name="volume">   1978.29024046 </i>
   <varray name="rec_basis" >
    <v>       0.08917200       0.00020854      -0.00021964 </v>
    <v>       0.00020835       0.08926646      -0.00031109 </v>
    <v>      -0.00015474      -0.00021896       0.06350433 </v>
   </varray>
  </crystal>
  <varray name="positions" >
   <v>       0.00390683       0.24376502       0.12489487 </v>
   <v>       0.00532705       0.25053591       0.62681469 </v>
   <v>       0.00282337       0.74912131       0.12075983 </v>
   <v>       0.00286992       0.74227780       0.62675947 </v>
   <v>       0.50791276       0.25145211       0.12270679 </v>
   <v>       0.49902585       0.25514691       0.62874513 </v>
   <v>       0.49652496       0.74699516       0.12583376 </v>
   <v>       0.49094644       0.76488530       0.61737665 </v>
   <v>       0.00620404       0.24725854       0.37749461 </v>
   <v>       0.00695001       0.24983341       0.87756489 </v>
   <v>       0.99324141       0.74556250       0.37386146 </v>
   <v>       0.00231680       0.74731740       0.87771659 </v>
   <v>       0.50451467       0.25367665       0.37436310 </v>
   <v>       0.49766343       0.25869626       0.87184357 </v>
   <v>       0.49685296       0.74342086       0.37422961 </v>
   <v>       0.49514209       0.75006020       0.87754982 </v>
   <v>       0.24179028       0.99612439       0.11944170 </v>
   <v>       0.25141101       0.00805278       0.62929257 </v>
   <v>       0.24890479       0.49851397       0.12589215 </v>
   <v>       0.24137549       0.49133868       0.62767032 </v>
   <v>       0.76049016       0.00405389       0.12315223 </v>
   <v>       0.74794056       0.01322464       0.62180730 </v>
   <v>       0.74516014       0.50901851       0.12678868 </v>
   <v>       0.75195667       0.49881423       0.62286886 </v>
   <v>       0.24940384       0.99340257       0.37579777 </v>
   <v>       0.24546102       0.00126992       0.87624974 </v>
   <v>       0.24974050       0.48542909       0.36815264 </v>
   <v>       0.23697439       0.49946607       0.87480680 </v>
   <v>       0.75238745       0.00177840       0.37338632 </v>
   <v>       0.75693972       0.00079424       0.88011920 </v>
   <v>       0.74843216       0.50338189       0.37715627 </v>
   <v>       0.75247231       0.50139863       0.87295503 </v>
   <v>       0.75345834       0.24868844       0.75547776 </v>
   <v>       0.49709459       0.49325775       0.25074921 </v>
   <v>       0.75268109       0.75588358       0.00052827 </v>
   <v>       0.25372077       0.25562574       0.75327169 </v>
   <v>       0.99410251       0.99124279       0.50303807 </v>
   <v>       0.50057495       0.01142751       0.49355289 </v>
   <v>       0.99591806       0.49938381       0.24939307 </v>
   <v>       0.25370598       0.75039751       0.99556013 </v>
   <v>       0.25513666       0.75364927       0.51037747 </v>
   <v>       0.00718751       0.50606560       0.00254673 </v>
   <v>       0.99006893       0.49005955       0.49812870 </v>
   <v>       0.49629501       0.00129061       0.01402986 </v>
   <v>       0.24363378       0.23622323       0.00032344 </v>
   <v>       0.51088011       0.51233283       0.99592642 </v>
   <v>       0.50836211       0.51368768       0.49938991 </v>
   <v>       0.99921411       0.49643302       0.74935363 </v>
   <v>       0.24216831       0.23512005       0.49880527 </v>
   <v>       0.01686292       0.00635595       0.25401659 </v>
   <v>       0.74666829       0.25047536       0.51064764 </v>
   <v>       0.23750521       0.75893431       0.75188677 </v>
   <v>       0.75469710       0.25586971       0.23762866 </v>
   <v>       0.24599686       0.25829159       0.24805672 </v>
   <v>       0.50398974       0.00361172       0.74133433 </v>
   <v>       0.24990469       0.74793883       0.23828755 </v>
   <v>       0.50684283       0.49331687       0.74442962 </v>
   <v>       0.00909276       0.01289631       0.75259757 </v>
   <v>       0.72737483       0.73799808       0.76162442 </v>
   <v>       0.99730777       0.99804254       0.99822500 </v>
   <v>       0.73891438       0.74037093       0.24775794 </v>
   <v>       0.51491702       0.99053983       0.25223075 </v>
   <v>       0.75114150       0.75583330       0.48781413 </v>
   <v>       0.74127775       0.24017093       0.99791306 </v>
   <v>       0.15317643       0.11101933       0.24957196 </v>
   <v>       0.12944202       0.12960995       0.76141587 </v>
   <v>       0.12370526       0.61875881       0.23441638 </v>
   <v>       0.12172894       0.62027697       0.75798491 </v>
   <v>       0.47001061       0.00650898       0.13440060 </v>
   <v>       0.98091764       0.98133276       0.37651777 </v>
   <v>       0.61044994       0.63275491       0.25260865 </v>
   <v>       0.60302604       0.63702353       0.72050360 </v>
   <v>       0.38855157       0.35581664       0.24960765 </v>
   <v>       0.36945097       0.38653239       0.74797068 </v>
   <v>       0.37637149       0.86257778       0.26864581 </v>
   <v>       0.38241751       0.87395332       0.75424822 </v>
   <v>       0.87605981       0.37288461       0.27952762 </v>
   <v>       0.87623627       0.37265647       0.73389248 </v>
   <v>       0.37080530       0.61402098       0.00649853 </v>
   <v>       0.02345315       0.52321645       0.37968663 </v>
   <v>       0.37820885       0.12483220       0.75876739 </v>
   <v>       0.36367588       0.61327813       0.25371528 </v>
   <v>       0.62164505       0.12554207       0.77765841 </v>
   <v>       0.87516564       0.12485653       0.25567160 </v>
   <v>       0.86646913       0.11482419       0.74739707 </v>
   <v>       0.87435844       0.62848740       0.24789258 </v>
   <v>       0.85482026       0.63569701       0.73767588 </v>
   <v>       0.12223693       0.37119411       0.24882038 </v>
   <v>       0.12030359       0.85875662       0.26585237 </v>
   <v>       0.62987178       0.37929788       0.75222094 </v>
   <v>       0.11191539       0.86969917       0.75021360 </v>
   <v>       0.64975362       0.89119363       0.24856424 </v>
   <v>       0.63650700       0.87993161       0.75439131 </v>
   <v>       0.12301173       0.37234322       0.75015656 </v>
   <v>       0.61776972       0.87752361       0.49445538 </v>
   <v>       0.37657794       0.88031350       0.98195195 </v>
   <v>       0.36781330       0.89809025       0.50300288 </v>
   <v>       0.87128190       0.36940026       0.48798820 </v>
   <v>       0.87128563       0.87949099       0.00708453 </v>
   <v>       0.86149905       0.87418932       0.52724427 </v>
   <v>       0.13217169       0.11099825       0.00002890 </v>
   <v>       0.13386131       0.10292086       0.49607049 </v>
   <v>       0.12642388       0.62457190       0.00670714 </v>
   <v>       0.63354105       0.11147901       0.00085656 </v>
   <v>       0.64053239       0.12618371       0.47698078 </v>
   <v>       0.63059883       0.62866942       0.99419002 </v>
   <v>       0.62598394       0.63642874       0.50733077 </v>
   <v>       0.12129852       0.37002917       0.00458457 </v>
   <v>       0.14002291       0.37946324       0.49881748 </v>
   <v>       0.12488048       0.86629193       0.99178747 </v>
   <v>       0.63737547       0.38475596       0.25950404 </v>
   <v>       0.62040800       0.37291792       0.49533830 </v>
   <v>       0.61715468       0.87225589       0.99458008 </v>
   <v>       0.39014415       0.13305252       0.98484932 </v>
   <v>       0.39585299       0.15561698       0.50592636 </v>
   <v>       0.35256651       0.61914553       0.47975615 </v>
   <v>       0.88716293       0.14080525       0.00465244 </v>
   <v>       0.88250318       0.12735776       0.49889779 </v>
   <v>       0.87068316       0.61786491       0.00269180 </v>
   <v>       0.87694217       0.63001107       0.50572679 </v>
   <v>       0.99406858       0.98022546       0.13545011 </v>
   <v>       0.00556997       0.99972539       0.62820678 </v>
   <v>       0.97467069       0.47492403       0.12535723 </v>
   <v>       0.01272981       0.51055004       0.61898656 </v>
   <v>       0.76647233       0.28152653       0.11753043 </v>
   <v>       0.51695314       0.01594822       0.62241282 </v>
   <v>       0.49938814       0.49134619       0.12396864 </v>
   <v>       0.47139273       0.48980999       0.61670396 </v>
   <v>       0.98305018       0.98782549       0.87199109 </v>
   <v>       0.98129318       0.48658202       0.87849675 </v>
   <v>       0.48022473       0.02226944       0.36950706 </v>
   <v>       0.26203164       0.27206784       0.88021176 </v>
   <v>       0.49204832       0.49237692       0.37776258 </v>
   <v>       0.61851477       0.14133345       0.24804260 </v>
   <v>       0.26506404       0.24820401       0.37463931 </v>
   <v>       0.26430179       0.72936056       0.87074651 </v>
   <v>       0.48374379       0.51989719       0.86649715 </v>
   <v>       0.77652926       0.27299219       0.87894957 </v>
   <v>       0.77012409       0.76717564       0.36855190 </v>
   <v>       0.77755010       0.76921170       0.87292251 </v>
   <v>       0.60852301       0.36952715       0.99001073 </v>
   <v>       0.25085624       0.24612899       0.62638648 </v>
   <v>       0.26343003       0.76847499       0.11971665 </v>
   <v>       0.26708769       0.72021893       0.63733109 </v>
   <v>       0.27478856       0.25036438       0.12146398 </v>
   <v>       0.73135373       0.23812145       0.62954685 </v>
   <v>       0.75144094       0.75665450       0.12606331 </v>
   <v>       0.10895692       0.84296916       0.49609045 </v>
  </varray>
 </structure>
 <calculation>
  <scstep>
   <time name="dav">  300.06  300.08</time>
   <time name="total">  303.82  303.94</time>
   <energy>
    <i name="alphaZ">   5680.36825161 </i>
    <i name="ewald"> -63952.99928682 </i>
    <i name="hartreedc"> -17885.08572216 </i>
    <i name="XCdc">   3406.15231155 </i>
    <i name="pawpsdc"> 115211.67031996 </i>
    <i name="pawaedc">-114716.84144628 </i>
    <i name="eentropy">     -0.01411885 </i>
    <i name="bandstr">  -7050.85925937 </i>
    <i name="atom">  78316.90445604 </i>
    <i name="e_fr_energy">   -990.70449432 </i>
    <i name="e_wo_entrp">   -990.69037547 </i>
    <i name="e_0_energy">   -990.69743489 </i>
   </energy>
  </scstep>
  <scstep>
   <time name="diag">   32.79   32.79</time>
   <time name="diis">   31.51   31.54</time>
   <time name="orth">   18.72   18.72</time>
   <time name="total">   86.75   86.82</time>
   <energy>
    <i name="e_fr_energy">   -990.70449481 </i>
    <i name="e_wo_entrp">   -990.69013615 </i>
    <i name="e_0_energy">   -990.69731548 </i>
   </energy>
  </scstep>
  <scstep>
   <time name="diag">   32.77   32.80</time>
   <time name="diis">   30.68   30.70</time>
   <time name="orth">   18.65   18.66</time>
   <time name="total">   85.83   85.96</time>
   <energy>
    <i name="e_fr_energy">   -990.70449344 </i>
    <i name="e_wo_entrp">   -990.69020617 </i>
    <i name="e_0_energy">   -990.69734980 </i>
   </energy>
  </scstep>
  <scstep>
   <time name="diag">   32.79   32.81</time>
   <time name="diis">   28.00   28.01</time>
   <time name="orth">   18.67   18.67</time>
   <time name="total">   83.20   83.31</time>
   <energy>
    <i name="e_fr_energy">   -990.70449398 </i>
    <i name="e_wo_entrp">   -990.69024435 </i>
    <i name="e_0_energy">   -990.69736916 </i>
   </energy>
  </scstep>
  <scstep>
   <time name="diag">   32.81   32.82</time>
   <time name="diis">   27.03   27.03</time>
   <time name="orth">   18.67   18.67</time>
   <time name="total">   82.24   82.39</time>
   <energy>
    <i name="e_fr_energy">   -990.70449435 </i>
    <i name="e_wo_entrp">   -990.69025056 </i>
    <i name="e_0_energy">   -990.69737246 </i>
   </energy>
  </scstep>
  <scstep>
   <time name="diag">   32.79   32.79</time>
   <time name="diis">   25.10   25.12</time>
   <time name="orth">   18.65   18.66</time>
   <time name="total">   80.29   80.38</time>
   <energy>
    <i name="e_fr_energy">   -990.70449490 </i>
    <i name="e_wo_entrp">   -990.69024476 </i>
    <i name="e_0_energy">   -990.69736983 </i>
   </energy>
  </scstep>
  <scstep>
   <time name="diag">   32.91   32.91</time>
   <time name="diis">   24.71   24.70</time>
   <time name="orth">   18.68   18.68</time>
   <time name="total">   80.03   80.16</time>
   <energy>
    <i name="e_fr_energy">   -990.70449533 </i>
    <i name="e_wo_entrp">   -990.69024298 </i>
    <i name="e_0_energy">   -990.69736915 </i>
   </energy>
  </scstep>
  <scstep>
   <time name="diag">   32.89   32.92</time>
   <time name="diis">   24.47   24.47</time>
   <time name="orth">   18.68   18.68</time>
   <time name="total">   76.65   76.68</time>
   <energy>
    <i name="alphaZ">   5680.36825161 </i>
    <i name="ewald"> -63952.99928682 </i>
    <i name="hartreedc"> -17885.08313287 </i>
    <i name="XCdc">   3406.15179274 </i>
    <i name="pawpsdc"> 115210.51974272 </i>
    <i name="pawaedc">-114715.68615908 </i>
    <i name="eentropy">     -0.01424879 </i>
    <i name="bandstr">  -7050.86591144 </i>
    <i name="atom">  78316.90445604 </i>
    <i name="e_fr_energy">   -990.70449589 </i>
    <i name="e_wo_entrp">   -990.69024710 </i>
    <i name="e_0_energy">   -990.69737150 </i>
   </energy>
  </scstep>
  <structure>
   <crystal>
    <varray name="basis" >
     <v>      11.21441056      -0.02607929       0.02723548 </v>
     <v>      -0.02610353      11.20261131       0.03856235 </v>
     <v>       0.03865970       0.05478880      15.74724014 </v>
    </varray>
    <i name="volume">   1978.29024046 </i>
    <varray name="rec_basis" >
     <v>       0.08917200       0.00020854      -0.00021964 </v>
     <v>       0.00020835       0.08926646      -0.00031109 </v>
     <v>      -0.00015474      -0.00021896       0.06350433 </v>
    </varray>
   </crystal>
   <varray name="positions" >
    <v>       0.00390683       0.24376502       0.12489487 </v>
    <v>       0.00532705       0.25053591       0.62681469 </v>
    <v>       0.00282337       0.74912131       0.12075983 </v>
    <v>       0.00286992       0.74227780       0.62675947 </v>
    <v>       0.50791276       0.25145211       0.12270679 </v>
    <v>       0.49902585       0.25514691       0.62874513 </v>
    <v>       0.49652496       0.74699516       0.12583376 </v>
    <v>       0.49094644       0.76488530       0.61737665 </v>
    <v>       0.00620404       0.24725854       0.37749461 </v>
    <v>       0.00695001       0.24983341       0.87756489 </v>
    <v>       0.99324141       0.74556250       0.37386146 </v>
    <v>       0.00231680       0.74731740       0.87771659 </v>
    <v>       0.50451467       0.25367665       0.37436310 </v>
    <v>       0.49766343       0.25869626       0.87184357 </v>
    <v>       0.49685296       0.74342086       0.37422961 </v>
    <v>       0.49514209       0.75006020       0.87754982 </v>
    <v>       0.24179028       0.99612439       0.11944170 </v>
    <v>       0.25141101       0.00805278       0.62929257 </v>
    <v>       0.24890479       0.49851397       0.12589215 </v>
    <v>       0.24137549       0.49133868       0.62767032 </v>
    <v>       0.76049016       0.00405389       0.12315223 </v>
    <v>       0.74794056       0.01322464       0.62180730 </v>
    <v>       0.74516014       0.50901851       0.12678868 </v>
    <v>       0.75195667       0.49881423       0.62286886 </v>
    <v>       0.24940384       0.99340257       0.37579777 </v>
    <v>       0.24546102       0.00126992       0.87624974 </v>
    <v>       0.24974050       0.48542909       0.36815264 </v>
    <v>       0.23697439       0.49946607       0.87480680 </v>
    <v>       0.75238745       0.00177840       0.37338632 </v>
    <v>       0.75693972       0.00079424       0.88011920 </v>
    <v>       0.74843216       0.50338189       0.37715627 </v>
    <v>       0.75247231       0.50139863       0.87295503 </v>
    <v>       0.75345834       0.24868844       0.75547776 </v>
    <v>       0.49709459       0.49325775       0.25074921 </v>
    <v>       0.75268109       0.75588358       0.00052827 </v>
    <v>       0.25372077       0.25562574       0.75327169 </v>
    <v>       0.99410251       0.99124279       0.50303807 </v>
    <v>       0.50057495       0.01142751       0.49355289 </v>
    <v>       0.99591806       0.49938381       0.24939307 </v>
    <v>       0.25370598       0.75039751       0.99556013 </v>
    <v>       0.25513666       0.75364927       0.51037747 </v>
    <v>       0.00718751       0.50606560       0.00254673 </v>
    <v>       0.99006893       0.49005955       0.49812870 </v>
    <v>       0.49629501       0.00129061       0.01402986 </v>
    <v>       0.24363378       0.23622323       0.00032344 </v>
    <v>       0.51088011       0.51233283       0.99592642 </v>
    <v>       0.50836211       0.51368768       0.49938991 </v>
    <v>       0.99921411       0.49643302       0.74935363 </v>
    <v>       0.24216831       0.23512005       0.49880527 </v>
    <v>       0.01686292       0.00635595       0.25401659 </v>
    <v>       0.74666829       0.25047536       0.51064764 </v>
    <v>       0.23750521       0.75893431       0.75188677 </v>
    <v>       0.75469710       0.25586971       0.23762866 </v>
    <v>       0.24599686       0.25829159       0.24805672 </v>
    <v>       0.50398974       0.00361172       0.74133433 </v>
    <v>       0.24990469       0.74793883       0.23828755 </v>
    <v>       0.50684283       0.49331687       0.74442962 </v>
    <v>       0.00909276       0.01289631       0.75259757 </v>
    <v>       0.72737483       0.73799808       0.76162442 </v>
    <v>       0.99730777       0.99804254       0.99822500 </v>
    <v>       0.73891438       0.74037093       0.24775794 </v>
    <v>       0.51491702       0.99053983       0.25223075 </v>
    <v>       0.75114150       0.75583330       0.48781413 </v>
    <v>       0.74127775       0.24017093       0.99791306 </v>
    <v>       0.15317643       0.11101933       0.24957196 </v>
    <v>       0.12944202       0.12960995       0.76141587 </v>
    <v>       0.12370526       0.61875881       0.23441638 </v>
    <v>       0.12172894       0.62027697       0.75798491 </v>
    <v>       0.47001061       0.00650898       0.13440060 </v>
    <v>       0.98091764       0.98133276       0.37651777 </v>
    <v>       0.61044994       0.63275491       0.25260865 </v>
    <v>       0.60302604       0.63702353       0.72050360 </v>
    <v>       0.38855157       0.35581664       0.24960765 </v>
    <v>       0.36945097       0.38653239       0.74797068 </v>
    <v>       0.37637149       0.86257778       0.26864581 </v>
    <v>       0.38241751       0.87395332       0.75424822 </v>
    <v>       0.87605981       0.37288461       0.27952762 </v>
    <v>       0.87623627       0.37265647       0.73389248 </v>
    <v>       0.37080530       0.61402098       0.00649853 </v>
    <v>       0.02345315       0.52321645       0.37968663 </v>
    <v>       0.37820885       0.12483220       0.75876739 </v>
    <v>       0.36367588       0.61327813       0.25371528 </v>
    <v>       0.62164505       0.12554207       0.77765841 </v>
    <v>       0.87516564       0.12485653       0.25567160 </v>
    <v>       0.86646913       0.11482419       0.74739707 </v>
    <v>       0.87435844       0.62848740       0.24789258 </v>
    <v>       0.85482026       0.63569701       0.73767588 </v>
    <v>       0.12223693       0.37119411       0.24882038 </v>
    <v>       0.12030359       0.85875662       0.26585237 </v>
    <v>       0.62987178       0.37929788       0.75222094 </v>
    <v>       0.11191539       0.86969917       0.75021360 </v>
    <v>       0.64975362       0.89119363       0.24856424 </v>
    <v>       0.63650700       0.87993161       0.75439131 </v>
    <v>       0.12301173       0.37234322       0.75015656 </v>
    <v>       0.61776972       0.87752361       0.49445538 </v>
    <v>       0.37657794       0.88031350       0.98195195 </v>
    <v>       0.36781330       0.89809025       0.50300288 </v>
    <v>       0.87128190       0.36940026       0.48798820 </v>
    <v>       0.87128563       0.87949099       0.00708453 </v>
    <v>       0.86149905       0.87418932       0.52724427 </v>
    <v>       0.13217169       0.11099825       0.00002890 </v>
    <v>       0.13386131       0.10292086       0.49607049 </v>
    <v>       0.12642388       0.62457190       0.00670714 </v>
    <v>       0.63354105       0.11147901       0.00085656 </v>
    <v>       0.64053239       0.12618371       0.47698078 </v>
    <v>       0.63059883       0.62866942       0.99419002 </v>
    <v>       0.62598394       0.63642874       0.50733077 </v>
    <v>       0.12129852       0.37002917       0.00458457 </v>
    <v>       0.14002291       0.37946324       0.49881748 </v>
    <v>       0.12488048       0.86629193       0.99178747 </v>
    <v>       0.63737547       0.38475596       0.25950404 </v>
    <v>       0.62040800       0.37291792       0.49533830 </v>
    <v>       0.61715468       0.87225589       0.99458008 </v>
    <v>       0.39014415       0.13305252       0.98484932 </v>
    <v>       0.39585299       0.15561698       0.50592636 </v>
    <v>       0.35256651       0.61914553       0.47975615 </v>
    <v>       0.88716293       0.14080525       0.00465244 </v>
    <v>       0.88250318       0.12735776       0.49889779 </v>
    <v>       0.87068316       0.61786491       0.00269180 </v>
    <v>       0.87694217       0.63001107       0.50572679 </v>
    <v>       0.99406858       0.98022546       0.13545011 </v>
    <v>       0.00556997       0.99972539       0.62820678 </v>
    <v>       0.97467069       0.47492403       0.12535723 </v>
    <v>       0.01272981       0.51055004       0.61898656 </v>
    <v>       0.76647233       0.28152653       0.11753043 </v>
    <v>       0.51695314       0.01594822       0.62241282 </v>
    <v>       0.49938814       0.49134619       0.12396864 </v>
    <v>       0.47139273       0.48980999       0.61670396 </v>
    <v>       0.98305018       0.98782549       0.87199109 </v>
    <v>       0.98129318       0.48658202       0.87849675 </v>
    <v>       0.48022473       0.02226944       0.36950706 </v>
    <v>       0.26203164       0.27206784       0.88021176 </v>
    <v>       0.49204832       0.49237692       0.37776258 </v>
    <v>       0.61851477       0.14133345       0.24804260 </v>
    <v>       0.26506404       0.24820401       0.37463931 </v>
    <v>       0.26430179       0.72936056       0.87074651 </v>
    <v>       0.48374379       0.51989719       0.86649715 </v>
    <v>       0.77652926       0.27299219       0.87894957 </v>
    <v>       0.77012409       0.76717564       0.36855190 </v>
    <v>       0.77755010       0.76921170       0.87292251 </v>
    <v>       0.60852301       0.36952715       0.99001073 </v>
    <v>       0.25085624       0.24612899       0.62638648 </v>
    <v>       0.26343003       0.76847499       0.11971665 </v>
    <v>       0.26708769       0.72021893       0.63733109 </v>
    <v>       0.27478856       0.25036438       0.12146398 </v>
    <v>       0.73135373       0.23812145       0.62954685 </v>
    <v>       0.75144094       0.75665450       0.12606331 </v>
    <v>       0.10895692       0.84296916       0.49609045 </v>
   </varray>
  </structure>
  <varray name="forces" >
   <v>      -0.00579792       0.00310699      -0.00100121 </v>
   <v>      -0.00783299       0.00671573      -0.01010071 </v>
   <v>      -0.00199538      -0.01075454       0.00011260 </v>
   <v>      -0.01040244       0.00458327      -0.00238171 </v>
   <v>       0.00578510       0.00587879       0.00456965 </v>
   <v>       0.00364349       0.00229635      -0.00348779 </v>
   <v>       0.00814795      -0.00423814      -0.01979072 </v>
   <v>       0.01351815      -0.00119956       0.00154772 </v>
   <v>       0.01186006      -0.00724262      -0.00672361 </v>
   <v>      -0.00715373      -0.00049434       0.00177147 </v>
   <v>       0.00135593       0.01369510      -0.00464499 </v>
   <v>       0.00454002       0.00144724      -0.00226238 </v>
   <v>      -0.00480812      -0.00223460      -0.00061538 </v>
   <v>       0.00384544      -0.00055138      -0.00853716 </v>
   <v>       0.00734001       0.02363358       0.02999616 </v>
   <v>       0.00429952      -0.00170649       0.00417635 </v>
   <v>      -0.00649070      -0.00254994       0.00261756 </v>
   <v>      -0.00070764      -0.00062204       0.00087859 </v>
   <v>      -0.00939107       0.00591483       0.01001332 </v>
   <v>       0.01149355      -0.00874466       0.00212119 </v>
   <v>       0.00051486       0.00254875      -0.01535309 </v>
   <v>      -0.00337136      -0.00258494      -0.00484861 </v>
   <v>       0.01133120       0.00391075       0.01155977 </v>
   <v>      -0.00032948      -0.00391524       0.00347743 </v>
   <v>      -0.00131344       0.00200448       0.00063354 </v>
   <v>       0.01122609      -0.01124196       0.00172456 </v>
   <v>       0.01665337       0.00089227      -0.00417467 </v>
   <v>       0.01745469       0.00218996       0.00797411 </v>
   <v>      -0.00771066       0.01356833      -0.00447676 </v>
   <v>      -0.00107483       0.00925767       0.00722738 </v>
   <v>      -0.00785584       0.00444039       0.00720462 </v>
   <v>       0.00459540       0.00180679      -0.00003681 </v>
   <v>       0.02140488       0.01337145      -0.00455180 </v>
   <v>       0.01379632      -0.02878247       0.00226111 </v>
   <v>       0.01394332      -0.00723383      -0.00627285 </v>
   <v>       0.02475005      -0.00706459      -0.01193442 </v>
   <v>      -0.00245635      -0.00670505       0.01173247 </v>
   <v>       0.00463265       0.01062920       0.00049934 </v>
   <v>      -0.00446940       0.00499521      -0.01011653 </v>
   <v>       0.00125475      -0.01601620      -0.02042822 </v>
   <v>      -0.00332599      -0.00772604       0.02170880 </v>
   <v>       0.00723463       0.00946413       0.00427165 </v>
   <v>      -0.00829923      -0.00724001       0.01204640 </v>
   <v>       0.01422929       0.00196552       0.00289618 </v>
   <v>      -0.02009840      -0.00845329       0.01329043 </v>
   <v>      -0.01691938       0.01093261       0.00665308 </v>
   <v>       0.00855079      -0.00087151       0.00199894 </v>
   <v>       0.00326717       0.00322570       0.00266012 </v>
   <v>       0.00646484      -0.00267564      -0.00140596 </v>
   <v>      -0.00866567      -0.00198503       0.01021742 </v>
   <v>      -0.01377882      -0.01220985       0.00394523 </v>
   <v>      -0.00063139      -0.00803398       0.00482041 </v>
   <v>      -0.00605477       0.00540211      -0.01717987 </v>
   <v>       0.00792694      -0.01552669      -0.00125900 </v>
   <v>      -0.00916637      -0.01284576      -0.00649096 </v>
   <v>       0.00796440       0.00952801      -0.01014661 </v>
   <v>       0.01666277      -0.00759287       0.00125591 </v>
   <v>      -0.00048059      -0.00785760      -0.01251845 </v>
   <v>       0.00456287       0.00899835      -0.00927034 </v>
   <v>       0.00016240       0.00461491       0.00903494 </v>
   <v>      -0.00529704      -0.00063884      -0.00011028 </v>
   <v>      -0.00699889       0.01484612       0.02586704 </v>
   <v>      -0.00910853      -0.00291472      -0.01384535 </v>
   <v>       0.00119390      -0.00830977       0.01488425 </v>
   <v>      -0.00700640       0.03810185      -0.00209253 </v>
   <v>       0.02735677       0.00080515      -0.00198784 </v>
   <v>       0.00371451       0.00942904       0.00341001 </v>
   <v>       0.01403997      -0.01594310       0.00884830 </v>
   <v>       0.00009672       0.00509347      -0.03296716 </v>
   <v>       0.00722584      -0.00715698      -0.01122547 </v>
   <v>       0.02680890       0.02001148       0.00581828 </v>
   <v>      -0.00214062      -0.00699421      -0.00126799 </v>
   <v>       0.01013574       0.01023917       0.00310843 </v>
   <v>      -0.01404225      -0.00638325      -0.00052179 </v>
   <v>       0.00698171       0.00397023      -0.00856707 </v>
   <v>      -0.00031029       0.00352331       0.00967897 </v>
   <v>       0.00379292      -0.00450644       0.00259240 </v>
   <v>      -0.02360322      -0.01033891       0.00945358 </v>
   <v>      -0.00191086      -0.01499531      -0.00188425 </v>
   <v>      -0.00204902      -0.00224107      -0.00795377 </v>
   <v>       0.00122766      -0.00218107      -0.01046499 </v>
   <v>       0.00465332       0.00204181      -0.00385229 </v>
   <v>       0.00582305      -0.00122121       0.00627032 </v>
   <v>      -0.00745776      -0.01489107      -0.00475244 </v>
   <v>      -0.00166753       0.01744103       0.01151544 </v>
   <v>       0.00113785       0.00343412       0.01236217 </v>
   <v>       0.00060094      -0.00732807      -0.01265448 </v>
   <v>       0.00825243      -0.00042476       0.00410407 </v>
   <v>      -0.00121798       0.01252082      -0.00327833 </v>
   <v>      -0.01892825      -0.00419255      -0.00004481 </v>
   <v>      -0.02829550      -0.00053379       0.01056775 </v>
   <v>       0.01365268      -0.00818469       0.00551639 </v>
   <v>       0.00482694       0.00644909      -0.01681891 </v>
   <v>       0.00596580      -0.01050653       0.00034180 </v>
   <v>      -0.00087798      -0.00307079       0.00731884 </v>
   <v>       0.02574622       0.00342311       0.01564388 </v>
   <v>       0.00851234       0.00316527      -0.01677739 </v>
   <v>       0.00934938      -0.00341389       0.00728931 </v>
   <v>      -0.01935684      -0.02247176      -0.01652443 </v>
   <v>       0.00655322      -0.00802695       0.01271641 </v>
   <v>      -0.02293131      -0.00117965      -0.00857061 </v>
   <v>       0.00126138       0.00461052       0.00614488 </v>
   <v>      -0.00737212       0.01185677      -0.00990718 </v>
   <v>      -0.03041454      -0.01005795       0.01052908 </v>
   <v>      -0.00465201      -0.02017511       0.00174573 </v>
   <v>      -0.00574428       0.01378669      -0.00030877 </v>
   <v>       0.00620344      -0.00558373      -0.00255190 </v>
   <v>       0.00749165      -0.00499899      -0.00005522 </v>
   <v>       0.00222841      -0.00280490      -0.01153452 </v>
   <v>      -0.00433386       0.00766135       0.01037521 </v>
   <v>      -0.00608561       0.00672530       0.01769333 </v>
   <v>      -0.01073652       0.00090694      -0.02528139 </v>
   <v>       0.00353590       0.02631364      -0.00393257 </v>
   <v>      -0.00715255      -0.01321646       0.00165860 </v>
   <v>      -0.00442207      -0.00635998      -0.00574717 </v>
   <v>      -0.00058219       0.00680765       0.01219092 </v>
   <v>      -0.00048024      -0.00461415       0.00506216 </v>
   <v>      -0.00795054       0.00722206      -0.01042917 </v>
   <v>      -0.00700381       0.00001796      -0.00169335 </v>
   <v>       0.00695817      -0.00420817      -0.00145319 </v>
   <v>       0.00545266      -0.01126502      -0.00206850 </v>
   <v>      -0.00692950       0.00806540       0.01056284 </v>
   <v>       0.00663638       0.01240990       0.00201316 </v>
   <v>      -0.00394202       0.01507322       0.00261602 </v>
   <v>      -0.00491490       0.01425100       0.00076906 </v>
   <v>      -0.00971163      -0.01316181      -0.02611673 </v>
   <v>       0.00296353       0.00862525      -0.00144680 </v>
   <v>      -0.00162292      -0.00831186      -0.00705978 </v>
   <v>      -0.00117187      -0.01212308       0.00347370 </v>
   <v>      -0.00218803      -0.00711526      -0.00585777 </v>
   <v>       0.00400427      -0.00982135      -0.00811296 </v>
   <v>      -0.00825708      -0.01014537      -0.00900575 </v>
   <v>      -0.02478064      -0.00653821       0.00962665 </v>
   <v>      -0.00467775       0.01777586      -0.00252660 </v>
   <v>       0.00226933      -0.00358985      -0.00478571 </v>
   <v>       0.00127356       0.00299383      -0.01472068 </v>
   <v>      -0.00731652      -0.00509404      -0.00851432 </v>
   <v>      -0.01022291      -0.00083399      -0.01197622 </v>
   <v>       0.00296402       0.01349121      -0.00474910 </v>
   <v>      -0.00778545       0.00085148       0.01387626 </v>
   <v>       0.01213519       0.00371463      -0.00253494 </v>
   <v>      -0.00084771       0.01020071      -0.01248243 </v>
   <v>      -0.00887564      -0.00995461       0.02049036 </v>
   <v>      -0.00973090       0.00821824       0.00389048 </v>
   <v>       0.00600406       0.01295451      -0.00054506 </v>
   <v>       0.00124979       0.00253972       0.02887419 </v>
   <v>      -0.00422044      -0.00420909       0.02162998 </v>
   <v>      -0.00678495      -0.00345420       0.00414182 </v>
  </varray>
  <varray name="stress" >
   <v>       0.10451714       0.01382419       0.08320762 </v>
   <v>       0.01382426      -0.08345018       0.01333798 </v>
   <v>       0.08320748       0.01333843       0.03706702 </v>
  </varray>
  <energy>
   <i name="e_fr_energy">   -990.70449589 </i>
   <i name="e_wo_entrp">   -990.69737150 </i>
   <i name="e_0_energy">     -0.01424879 </i>
  </energy>
  <time name="totalsc"> 1029.39 1032.80</time>
 </calculation>
 <calculation>
  <scstep>
   <time name="dav">  283.38  283.42</time>
   <time name="total">  287.13  287.21</time>
   <energy>
    <i name="alphaZ">   5680.23535943 </i>
    <i name="ewald"> -63952.53634388 </i>
    <i name="hartreedc"> -17884.91829864 </i>
    <i name="XCdc">   3406.11947958 </i>
    <i name="pawpsdc"> 115210.46521445 </i>
    <i name="pawaedc">-114715.63140438 </i>
    <i name="eentropy">     -0.01425518 </i>
    <i name="bandstr">  -7051.32805261 </i>
    <i name="atom">  78316.90445604 </i>
    <i name="e_fr_energy">   -990.70384518 </i>
    <i name="e_wo_entrp">   -990.68959000 </i>
    <i name="e_0_energy">   -990.69671759 </i>
   </energy>
  </scstep>
  <scstep>
   <time name="diag">   32.80   32.80</time>
   <time name="diis">   52.64   52.66</time>
   <time name="orth">   18.64   18.64</time>
   <time name="total">  107.85  107.89</time>
   <energy>
    <i name="e_fr_energy">   -990.70573642 </i>
    <i name="e_wo_entrp">   -990.69105957 </i>
    <i name="e_0_energy">   -990.69839800 </i>
   </energy>
  </scstep>
  <scstep>
   <time name="diag">   32.77   32.80</time>
   <time name="diis">   45.39   45.40</time>
   <time name="orth">   18.66   18.66</time>
   <time name="total">  100.59  100.71</time>
   <energy>
    <i name="e_fr_energy">   -990.70590499 </i>
    <i name="e_wo_entrp">   -990.69142687 </i>
    <i name="e_0_energy">   -990.69866593 </i>
   </energy>
  </scstep>
  <scstep>
   <time name="diag">   32.80   32.80</time>
   <time name="diis">   33.12   33.12</time>
   <time name="orth">   18.66   18.66</time>
   <time name="total">   88.35   88.43</time>
   <energy>
    <i name="e_fr_energy">   -990.70586680 </i>
    <i name="e_wo_entrp">   -990.69139115 </i>
    <i name="e_0_energy">   -990.69862897 </i>
   </energy>
  </scstep>
  <scstep>
   <time name="diag">   32.81   32.81</time>
   <time name="diis">   32.63   32.64</time>
   <time name="orth">   18.67   18.67</time>
   <time name="total">   87.86   87.94</time>
   <energy>
    <i name="e_fr_energy">   -990.70584320 </i>
    <i name="e_wo_entrp">   -990.69125941 </i>
    <i name="e_0_energy">   -990.69855130 </i>
   </energy>
  </scstep>
  <scstep>
   <time name="diag">   32.82   32.82</time>
   <time name="diis">   31.67   31.68</time>
   <time name="orth">   18.68   18.68</time>
   <time name="total">   86.93   87.03</time>
   <energy>
    <i name="e_fr_energy">   -990.70584549 </i>
    <i name="e_wo_entrp">   -990.69133939 </i>
    <i name="e_0_energy">   -990.69859244 </i>
   </energy>
  </scstep>
  <scstep>
   <time name="diag">   32.89   32.89</time>
   <time name="diis">   30.91   30.92</time>
   <time name="orth">   18.67   18.67</time>
   <time name="total">   86.21   86.27</time>
   <energy>
    <i name="e_fr_energy">   -990.70584554 </i>
    <i name="e_wo_entrp">   -990.69134502 </i>
    <i name="e_0_energy">   -990.69859528 </i>
   </energy>
  </scstep>
  <scstep>
   <time name="diag">   32.86   32.87</time>
   <time name="diis">   29.13   29.15</time>
   <time name="orth">   18.61   18.61</time>
   <time name="total">   81.20   81.31</time>
   <energy>
    <i name="alphaZ">   5680.23535943 </i>
    <i name="ewald"> -63952.53634388 </i>
    <i name="hartreedc"> -17885.24486376 </i>
    <i name="XCdc">   3406.14622838 </i>
    <i name="pawpsdc"> 115201.66219552 </i>
    <i name="pawaedc">-114706.82561926 </i>
    <i name="eentropy">     -0.01451242 </i>
    <i name="bandstr">  -7051.03274554 </i>
    <i name="atom">  78316.90445604 </i>
    <i name="e_fr_energy">   -990.70584548 </i>
    <i name="e_wo_entrp">   -990.69133306 </i>
    <i name="e_0_energy">   -990.69858927 </i>
   </energy>
  </scstep>
  <structure>
   <crystal>
    <varray name="basis" >
     <v>      11.21488308      -0.02601587       0.02761131 </v>
     <v>      -0.02604100      11.20223511       0.03862219 </v>
     <v>       0.03918900       0.05487171      15.74747666 </v>
    </varray>
    <i name="volume">   1978.33652363 </i>
    <varray name="rec_basis" >
     <v>       0.08916826       0.00020805      -0.00022263 </v>
     <v>       0.00020785       0.08926946      -0.00031157 </v>
     <v>      -0.00015686      -0.00021931       0.06350339 </v>
    </varray>
   </crystal>
   <varray name="positions" >
    <v>       0.00388193       0.24377836       0.12489182 </v>
    <v>       0.00529353       0.25056491       0.62678373 </v>
    <v>       0.00281467       0.74907498       0.12076031 </v>
    <v>       0.00282524       0.74229747       0.62675220 </v>
    <v>       0.50793765       0.25147742       0.12272069 </v>
    <v>       0.49904158       0.25515689       0.62873440 </v>
    <v>       0.49656018       0.74697729       0.12577311 </v>
    <v>       0.49100456       0.76488025       0.61738130 </v>
    <v>       0.00625506       0.24722757       0.37747400 </v>
    <v>       0.00691921       0.24983118       0.87757038 </v>
    <v>       0.99324743       0.74562157       0.37384708 </v>
    <v>       0.00233636       0.74732371       0.87770961 </v>
    <v>       0.50449397       0.25366699       0.37436128 </v>
    <v>       0.49768006       0.25869405       0.87181739 </v>
    <v>       0.49688446       0.74352226       0.37432120 </v>
    <v>       0.49516052       0.75005284       0.87756260 </v>
    <v>       0.24176230       0.99611331       0.11944979 </v>
    <v>       0.25140795       0.00805008       0.62929527 </v>
    <v>       0.24886435       0.49853920       0.12592284 </v>
    <v>       0.24142482       0.49130110       0.62767682 </v>
    <v>       0.76049256       0.00406510       0.12310516 </v>
    <v>       0.74792608       0.01321355       0.62179250 </v>
    <v>       0.74520881       0.50903529       0.12682397 </v>
    <v>       0.75195518       0.49879732       0.62287955 </v>
    <v>       0.24939820       0.99341118       0.37579970 </v>
    <v>       0.24550918       0.00122159       0.87625506 </v>
    <v>       0.24981220       0.48543316       0.36813972 </v>
    <v>       0.23704942       0.49947556       0.87483108 </v>
    <v>       0.75235447       0.00183682       0.37337252 </v>
    <v>       0.75693511       0.00083399       0.88014125 </v>
    <v>       0.74839833       0.50340082       0.37717835 </v>
    <v>       0.75249209       0.50140645       0.87295486 </v>
    <v>       0.75355061       0.24874631       0.75546352 </v>
    <v>       0.49715363       0.49313390       0.25075634 </v>
    <v>       0.75274106       0.75585266       0.00050902 </v>
    <v>       0.25382730       0.25559574       0.75323502 </v>
    <v>       0.99409175       0.99121371       0.50307410 </v>
    <v>       0.50059498       0.01147332       0.49355427 </v>
    <v>       0.99589899       0.49940543       0.24936206 </v>
    <v>       0.25371143       0.75032886       0.99549771 </v>
    <v>       0.25512205       0.75361563       0.51044408 </v>
    <v>       0.00721868       0.50610637       0.00255967 </v>
    <v>       0.99003303       0.49002811       0.49816574 </v>
    <v>       0.49635621       0.00129918       0.01403861 </v>
    <v>       0.24354709       0.23618642       0.00036440 </v>
    <v>       0.51080737       0.51237965       0.99594681 </v>
    <v>       0.50839886       0.51368398       0.49939598 </v>
    <v>       0.99922817       0.49644690       0.74936172 </v>
    <v>       0.24219611       0.23510862       0.49880094 </v>
    <v>       0.01682551       0.00634716       0.25404798 </v>
    <v>       0.74660885       0.25042258       0.51065996 </v>
    <v>       0.23750237       0.75889964       0.75190162 </v>
    <v>       0.75467129       0.25589317       0.23757601 </v>
    <v>       0.24603082       0.25822482       0.24805297 </v>
    <v>       0.50395024       0.00355641       0.74131465 </v>
    <v>       0.24993916       0.74798010       0.23825631 </v>
    <v>       0.50691442       0.49328432       0.74443342 </v>
    <v>       0.00909075       0.01286266       0.75255930 </v>
    <v>       0.72739464       0.73803701       0.76159589 </v>
    <v>       0.99730842       0.99806228       0.99825263 </v>
    <v>       0.73889159       0.74036813       0.24775765 </v>
    <v>       0.51488678       0.99060330       0.25230989 </v>
    <v>       0.75110243       0.75582086       0.48777181 </v>
    <v>       0.74128264       0.24013494       0.99795874 </v>
    <v>       0.15314669       0.11118338       0.24956520 </v>
    <v>       0.12955974       0.12961373       0.76140956 </v>
    <v>       0.12372130       0.61879940       0.23442670 </v>
    <v>       0.12178909       0.62020832       0.75801208 </v>
    <v>       0.47001143       0.00653141       0.13429955 </v>
    <v>       0.98094877       0.98130218       0.37648340 </v>
    <v>       0.61056541       0.63284127       0.25262607 </v>
    <v>       0.60301677       0.63699341       0.72049981 </v>
    <v>       0.38859524       0.35586079       0.24961699 </v>
    <v>       0.36939050       0.38650477       0.74796925 </v>
    <v>       0.37640166       0.86259508       0.26861947 </v>
    <v>       0.38241611       0.87396834       0.75427783 </v>
    <v>       0.87607605       0.37286520       0.27953559 </v>
    <v>       0.87613453       0.37261157       0.73392173 </v>
    <v>       0.37079695       0.61395641       0.00649293 </v>
    <v>       0.02344440       0.52320689       0.37966230 </v>
    <v>       0.37821422       0.12482298       0.75873534 </v>
    <v>       0.36369596       0.61328703       0.25370342 </v>
    <v>       0.62167002       0.12553677       0.77767759 </v>
    <v>       0.87513346       0.12479240       0.25565725 </v>
    <v>       0.86646201       0.11489911       0.74743218 </v>
    <v>       0.87436324       0.62850202       0.24793041 </v>
    <v>       0.85482291       0.63566565       0.73763719 </v>
    <v>       0.12227238       0.37119231       0.24883290 </v>
    <v>       0.12029851       0.85881058       0.26584221 </v>
    <v>       0.62979031       0.37927964       0.75222099 </v>
    <v>       0.11179355       0.86969643       0.75024620 </v>
    <v>       0.64981221       0.89115844       0.24858112 </v>
    <v>       0.63652801       0.87995968       0.75433968 </v>
    <v>       0.12303729       0.37229803       0.75015768 </v>
    <v>       0.61776583       0.87751027       0.49447785 </v>
    <v>       0.37668857       0.88032827       0.98199965 </v>
    <v>       0.36785013       0.89810422       0.50295138 </v>
    <v>       0.87132200       0.36938555       0.48801050 </v>
    <v>       0.87120231       0.87939427       0.00703429 </v>
    <v>       0.86152703       0.87415463       0.52728326 </v>
    <v>       0.13207312       0.11099307       0.00000283 </v>
    <v>       0.13386672       0.10294064       0.49608926 </v>
    <v>       0.12639239       0.62462304       0.00667671 </v>
    <v>       0.63341000       0.11143524       0.00088916 </v>
    <v>       0.64051216       0.12609676       0.47698637 </v>
    <v>       0.63057426       0.62872874       0.99418897 </v>
    <v>       0.62601059       0.63640480       0.50732297 </v>
    <v>       0.12133070       0.37000772       0.00458439 </v>
    <v>       0.14003259       0.37945136       0.49878215 </v>
    <v>       0.12486180       0.86632472       0.99181920 </v>
    <v>       0.63734917       0.38478460       0.25955822 </v>
    <v>       0.62036209       0.37292210       0.49526091 </v>
    <v>       0.61717020       0.87236930       0.99456773 </v>
    <v>       0.39011323       0.13299551       0.98485459 </v>
    <v>       0.39583396       0.15558963       0.50590886 </v>
    <v>       0.35256395       0.61917466       0.47979343 </v>
    <v>       0.88716077       0.14078530       0.00466800 </v>
    <v>       0.88246916       0.12738894       0.49886582 </v>
    <v>       0.87065305       0.61786494       0.00268666 </v>
    <v>       0.87697207       0.62999304       0.50572233 </v>
    <v>       0.99409195       0.98017704       0.13544385 </v>
    <v>       0.00554013       0.99975990       0.62823911 </v>
    <v>       0.97469934       0.47497751       0.12536322 </v>
    <v>       0.01271297       0.51061487       0.61899444 </v>
    <v>       0.76645132       0.28158784       0.11753267 </v>
    <v>       0.51691151       0.01589183       0.62233302 </v>
    <v>       0.49940100       0.49138338       0.12396409 </v>
    <v>       0.47138574       0.48977428       0.61668243 </v>
    <v>       0.98304498       0.98777322       0.87200186 </v>
    <v>       0.98128375       0.48655144       0.87847890 </v>
    <v>       0.48024195       0.02222731       0.36948227 </v>
    <v>       0.26199611       0.27202421       0.88018434 </v>
    <v>       0.49194155       0.49234837       0.37779232 </v>
    <v>       0.61849485       0.14140999       0.24803470 </v>
    <v>       0.26507382       0.24818864       0.37462467 </v>
    <v>       0.26430746       0.72937368       0.87070137 </v>
    <v>       0.48371235       0.51987531       0.86647117 </v>
    <v>       0.77648540       0.27298868       0.87891296 </v>
    <v>       0.77013703       0.76723384       0.36853719 </v>
    <v>       0.77751647       0.76921508       0.87296508 </v>
    <v>       0.60857528       0.36954331       0.99000283 </v>
    <v>       0.25085283       0.24617310       0.62634814 </v>
    <v>       0.26339153       0.76843173       0.11977960 </v>
    <v>       0.26704587       0.72025417       0.63734300 </v>
    <v>       0.27481453       0.25042024       0.12146213 </v>
    <v>       0.73135882       0.23813196       0.62963528 </v>
    <v>       0.75142251       0.75663601       0.12612965 </v>
    <v>       0.10892766       0.84295416       0.49610323 </v>
   </varray>
  </structure>
  <varray name="forces" >
   <v>      -0.00144789       0.00318027       0.00191555 </v>
   <v>      -0.00138591       0.00676548      -0.00593678 </v>
   <v>      -0.00159046      -0.00636635       0.00360542 </v>
   <v>      -0.01084218       0.00116127      -0.00227511 </v>
   <v>      -0.00022414       0.00132990      -0.00421450 </v>
   <v>       0.00336450       0.00153965      -0.00035010 </v>
   <v>       0.00918196      -0.00109733      -0.01363183 </v>
   <v>       0.00529023      -0.00105848      -0.00337637 </v>
   <v>       0.01314417      -0.00219327      -0.00604152 </v>
   <v>      -0.00117528      -0.00046945      -0.00515600 </v>
   <v>       0.00146689       0.00452874      -0.00539022 </v>
   <v>       0.00080559       0.00593921      -0.00201554 </v>
   <v>      -0.00648507       0.00105043       0.00059987 </v>
   <v>       0.00288696      -0.00156593      -0.00272934 </v>
   <v>       0.00491867       0.02284273       0.02032397 </v>
   <v>       0.01042609       0.00110961       0.00490190 </v>
   <v>      -0.00212978      -0.00497556      -0.00003540 </v>
   <v>      -0.00062334       0.00037205       0.00050250 </v>
   <v>      -0.00495006       0.00471636       0.01586643 </v>
   <v>       0.00711363      -0.00818641       0.00117726 </v>
   <v>      -0.00384269      -0.00661231      -0.00784811 </v>
   <v>      -0.00457906      -0.00183739       0.00091669 </v>
   <v>       0.00854082       0.01142790       0.00834576 </v>
   <v>       0.00210428      -0.00167336       0.00352822 </v>
   <v>      -0.00237995       0.00091986       0.00087078 </v>
   <v>       0.00879693      -0.00587715       0.00288805 </v>
   <v>       0.00756657       0.00421912      -0.00633627 </v>
   <v>       0.01671414      -0.00805444       0.00076590 </v>
   <v>      -0.00167507       0.00645695      -0.00849775 </v>
   <v>      -0.00370458       0.00845299       0.00430703 </v>
   <v>      -0.00207412       0.00585604       0.00607822 </v>
   <v>       0.00114292       0.00054621       0.00217545 </v>
   <v>      -0.00197383      -0.00432305       0.01440119 </v>
   <v>      -0.00218119       0.02493094       0.00098028 </v>
   <v>      -0.00650051      -0.00511481       0.00486853 </v>
   <v>       0.00285866      -0.00818932       0.00645893 </v>
   <v>       0.00111916      -0.00528816      -0.00003531 </v>
   <v>      -0.00676896      -0.00686738       0.00560462 </v>
   <v>       0.00603420       0.01114276       0.01223503 </v>
   <v>      -0.00379668       0.01799023       0.00028656 </v>
   <v>      -0.00232185       0.00053616       0.01349936 </v>
   <v>       0.00162416      -0.00297053      -0.00652346 </v>
   <v>       0.00211075       0.00152248      -0.00460907 </v>
   <v>       0.00305338      -0.00552021      -0.00585866 </v>
   <v>      -0.00237463      -0.00918095      -0.00608024 </v>
   <v>       0.00848126      -0.00378399       0.00132783 </v>
   <v>      -0.00371399      -0.00199528      -0.00182624 </v>
   <v>       0.01023861      -0.00467797       0.00264638 </v>
   <v>      -0.00096726       0.00472797      -0.00102124 </v>
   <v>      -0.00138042       0.00133026      -0.00104671 </v>
   <v>      -0.00344749      -0.00179135       0.01093420 </v>
   <v>      -0.01359707       0.00105511      -0.00795485 </v>
   <v>       0.00341046       0.00275302      -0.00108256 </v>
   <v>       0.00455188       0.00563489      -0.00163873 </v>
   <v>       0.00309816       0.00140752      -0.00854088 </v>
   <v>       0.00736795      -0.00269166       0.00577966 </v>
   <v>       0.00109585      -0.00424608       0.00008718 </v>
   <v>       0.00629833       0.01155426       0.01016444 </v>
   <v>       0.00925905       0.00145657      -0.00174536 </v>
   <v>      -0.00533159      -0.00991090       0.00400841 </v>
   <v>       0.00738525       0.00829688       0.00224169 </v>
   <v>       0.00239500      -0.00734500      -0.01862824 </v>
   <v>       0.00261338       0.00166525      -0.01114925 </v>
   <v>      -0.01120325      -0.00825275      -0.00737549 </v>
   <v>      -0.01968155       0.01002940      -0.00021195 </v>
   <v>       0.00903430      -0.01918936      -0.00707683 </v>
   <v>      -0.00083744       0.00487942       0.00212209 </v>
   <v>       0.01567060      -0.01188781       0.00983240 </v>
   <v>       0.00446768       0.00510593       0.01272274 </v>
   <v>       0.00365201       0.00031904       0.00288374 </v>
   <v>      -0.00265047      -0.01242238       0.00896668 </v>
   <v>       0.00153883      -0.00106374      -0.00139541 </v>
   <v>       0.00371532      -0.00247689       0.00153988 </v>
   <v>       0.00479203       0.00802272      -0.00257265 </v>
   <v>       0.00822824       0.01089845      -0.00628166 </v>
   <v>      -0.00104494       0.00177254       0.00860218 </v>
   <v>      -0.00454316      -0.00890588      -0.00441612 </v>
   <v>      -0.00478561       0.00911887       0.00415532 </v>
   <v>      -0.01312647      -0.00601792      -0.00429626 </v>
   <v>      -0.00340756      -0.00305260      -0.00070780 </v>
   <v>       0.00738651      -0.00763823      -0.01144945 </v>
   <v>       0.01004969      -0.00140792      -0.00362338 </v>
   <v>      -0.00466534      -0.01017424       0.00121207 </v>
   <v>      -0.01070842      -0.01051138      -0.00758234 </v>
   <v>       0.01106707       0.00678054       0.00738524 </v>
   <v>       0.00646469      -0.00205372       0.00814235 </v>
   <v>      -0.00077953      -0.00295116      -0.00843760 </v>
   <v>       0.00972202       0.00031738       0.00037231 </v>
   <v>       0.00158042       0.01296244      -0.00257871 </v>
   <v>      -0.01115238      -0.00599793      -0.00156805 </v>
   <v>      -0.00911545      -0.01661390       0.00638720 </v>
   <v>      -0.00904762       0.01862477       0.00771608 </v>
   <v>       0.00370346       0.00563487      -0.01691197 </v>
   <v>      -0.00599351      -0.00286431      -0.00395910 </v>
   <v>       0.00243680      -0.00543338       0.00534169 </v>
   <v>       0.00121302      -0.02413162       0.00840546 </v>
   <v>       0.00209338       0.00045819      -0.01509880 </v>
   <v>      -0.00509350      -0.01376677       0.01143180 </v>
   <v>       0.00825672       0.00059804      -0.00735462 </v>
   <v>       0.00448137      -0.00649675       0.01075367 </v>
   <v>      -0.01659279       0.00267632      -0.00359201 </v>
   <v>      -0.00527531      -0.00356357       0.00498872 </v>
   <v>      -0.00219770       0.00933343      -0.00857571 </v>
   <v>       0.00085555       0.02019456       0.00830983 </v>
   <v>       0.00213522      -0.00298850       0.00414148 </v>
   <v>      -0.01589090       0.00473220       0.00242875 </v>
   <v>       0.00689836      -0.00552263      -0.00239299 </v>
   <v>       0.00248933       0.00115495       0.00256709 </v>
   <v>       0.00160860      -0.00353205      -0.00897410 </v>
[...]
       <r>   -17.7508     0.0000    32.0000 </r>
       <r>   -17.5960     0.0000    32.0000 </r>
       <r>   -17.4413     0.0000    32.0000 </r>
       <r>   -17.2866     0.0000    32.0000 </r>
       <r>   -17.1319     0.0000    32.0000 </r>
       <r>   -16.9771     0.0000    32.0000 </r>
       <r>   -16.8224     0.0000    32.0000 </r>
       <r>   -16.6677     0.0000    32.0000 </r>
       <r>   -16.5129     0.0000    32.0000 </r>
       <r>   -16.3582     0.0000    32.0000 </r>
       <r>   -16.2035     0.0000    32.0000 </r>
       <r>   -16.0488     0.0000    32.0000 </r>
       <r>   -15.8940     0.0000    32.0000 </r>
       <r>   -15.7393     0.0000    32.0000 </r>
       <r>   -15.5846     0.0000    32.0000 </r>
       <r>   -15.4299     0.0000    32.0000 </r>
       <r>   -15.2751     0.0000    32.0000 </r>
       <r>   -15.1204     0.0034    32.0005 </r>
       <r>   -14.9657     9.2219    33.4274 </r>
       <r>   -14.8110    39.3574    39.5170 </r>
       <r>   -14.6562    44.9693    46.4750 </r>
       <r>   -14.5015    44.0254    53.2869 </r>
       <r>   -14.3468    35.0038    58.7029 </r>
       <r>   -14.1920    41.6201    65.1427 </r>
       <r>   -14.0373    72.5517    76.3684 </r>
       <r>   -13.8826    70.7420    87.3141 </r>
       <r>   -13.7279    71.9002    98.4389 </r>
       <r>   -13.5731    54.2489   106.8327 </r>
       <r>   -13.4184    43.5717   113.5744 </r>
       <r>   -13.2637    15.6708   115.9991 </r>
       <r>   -13.1090     0.0058   116.0000 </r>
       <r>   -12.9542     0.0000   116.0000 </r>
       <r>   -12.7995     1.2689   116.1963 </r>
       <r>   -12.6448    52.0744   124.2536 </r>
       <r>   -12.4900    92.3669   138.5453 </r>
       <r>   -12.3353   117.1370   156.6695 </r>
       <r>   -12.1806   111.3780   173.9027 </r>
       <r>   -12.0259    96.6652   188.8594 </r>
       <r>   -11.8711    85.7761   202.1312 </r>
       <r>   -11.7164    48.6807   209.6634 </r>
       <r>   -11.5617    14.9333   211.9740 </r>
       <r>   -11.4070     0.1680   212.0000 </r>
       <r>   -11.2522     0.0000   212.0000 </r>
       <r>   -11.0975     0.0000   212.0000 </r>
       <r>   -10.9428     0.0000   212.0000 </r>
       <r>   -10.7881     0.0000   212.0000 </r>
       <r>   -10.6333     0.0000   212.0000 </r>
       <r>   -10.4786     0.0000   212.0000 </r>
       <r>   -10.3239     0.0000   212.0000 </r>
       <r>   -10.1691     0.0000   212.0000 </r>
       <r>   -10.0144     0.0000   212.0000 </r>
       <r>    -9.8597     0.0000   212.0000 </r>
       <r>    -9.7050     0.0000   212.0000 </r>
       <r>    -9.5502     0.0000   212.0000 </r>
       <r>    -9.3955     0.0000   212.0000 </r>
       <r>    -9.2408     0.0000   212.0000 </r>
       <r>    -9.0861     0.0000   212.0000 </r>
       <r>    -8.9313     0.0000   212.0000 </r>
       <r>    -8.7766     0.0000   212.0000 </r>
       <r>    -8.6219     0.0000   212.0000 </r>
       <r>    -8.4672     0.0000   212.0000 </r>
       <r>    -8.3124     0.0000   212.0000 </r>
       <r>    -8.1577     0.0000   212.0000 </r>
       <r>    -8.0030     0.0000   212.0000 </r>
       <r>    -7.8482     0.0000   212.0000 </r>
       <r>    -7.6935     0.0000   212.0000 </r>
       <r>    -7.5388     0.0000   212.0000 </r>
       <r>    -7.3841     0.0000   212.0000 </r>
       <r>    -7.2293     0.0000   212.0000 </r>
       <r>    -7.0746     0.0000   212.0000 </r>
       <r>    -6.9199     0.0000   212.0000 </r>
       <r>    -6.7652     0.0000   212.0000 </r>
       <r>    -6.6104     0.0000   212.0000 </r>
       <r>    -6.4557     0.0000   212.0000 </r>
       <r>    -6.3010     0.0000   212.0000 </r>
       <r>    -6.1463     0.0000   212.0000 </r>
       <r>    -5.9915     0.0000   212.0000 </r>
       <r>    -5.8368     0.0000   212.0000 </r>
       <r>    -5.6821     0.0000   212.0000 </r>
       <r>    -5.5273     0.0000   212.0000 </r>
       <r>    -5.3726     0.0000   212.0000 </r>
       <r>    -5.2179     0.0000   212.0000 </r>
       <r>    -5.0632     0.0000   212.0000 </r>
       <r>    -4.9084     0.0000   212.0000 </r>
       <r>    -4.7537     0.0000   212.0000 </r>
       <r>    -4.5990     0.0000   212.0000 </r>
       <r>    -4.4443     0.0000   212.0000 </r>
       <r>    -4.2895     0.0000   212.0000 </r>
       <r>    -4.1348     0.0000   212.0000 </r>
       <r>    -3.9801     0.0000   212.0000 </r>
       <r>    -3.8253     0.0000   212.0000 </r>
       <r>    -3.6706     0.0000   212.0000 </r>
       <r>    -3.5159     0.0000   212.0000 </r>
       <r>    -3.3612     0.0000   212.0000 </r>
       <r>    -3.2064     0.0000   212.0000 </r>
       <r>    -3.0517     0.0000   212.0000 </r>
       <r>    -2.8970     0.0000   212.0000 </r>
       <r>    -2.7423     0.0000   212.0000 </r>
       <r>    -2.5875     0.0005   212.0001 </r>
       <r>    -2.4328     4.6407   212.7181 </r>
       <r>    -2.2781    14.9974   215.0386 </r>
       <r>    -2.1234    21.0919   218.3021 </r>
       <r>    -1.9686    22.8228   221.8334 </r>
       <r>    -1.8139    25.4818   225.7761 </r>
       <r>    -1.6592    26.7050   229.9081 </r>
       <r>    -1.5044    27.3134   234.1342 </r>
       <r>    -1.3497    30.7829   238.8972 </r>
       <r>    -1.1950    50.1834   246.6619 </r>
       <r>    -1.0403    55.3648   255.2283 </r>
       <r>    -0.8855    74.3496   266.7322 </r>
       <r>    -0.7308    86.3750   280.0967 </r>
       <r>    -0.5761   101.4423   295.7925 </r>
       <r>    -0.4214    87.6038   309.3472 </r>
       <r>    -0.2666    71.1324   320.3533 </r>
       <r>    -0.1119    59.2946   329.5277 </r>
       <r>     0.0428    51.8001   337.5426 </r>
       <r>     0.1975    49.3592   345.1798 </r>
       <r>     0.3523    61.7064   354.7274 </r>
       <r>     0.5070    60.6455   364.1109 </r>
       <r>     0.6617    56.5670   372.8633 </r>
       <r>     0.8165    50.9362   380.7445 </r>
       <r>     0.9712    53.2543   388.9844 </r>
       <r>     1.1259    53.4861   397.2601 </r>
       <r>     1.2806    56.7065   406.0341 </r>
       <r>     1.4354    63.1896   415.8112 </r>
       <r>     1.5901    71.9918   426.9503 </r>
       <r>     1.7448    69.2289   437.6619 </r>
       <r>     1.8995    61.4070   447.1632 </r>
       <r>     2.0543    45.9481   454.2726 </r>
       <r>     2.2090    39.8238   460.4344 </r>
       <r>     2.3637    25.3423   464.3555 </r>
       <r>     2.5184     4.2289   465.0099 </r>
       <r>     2.6732     6.2672   465.9795 </r>
       <r>     2.8279     0.1322   466.0000 </r>
       <r>     2.9826     0.0000   466.0000 </r>
       <r>     3.1374     0.0000   466.0000 </r>
       <r>     3.2921     0.0000   466.0000 </r>
       <r>     3.4468     0.0000   466.0000 </r>
       <r>     3.6015     0.0000   466.0000 </r>
       <r>     3.7563     0.0000   466.0000 </r>
       <r>     3.9110     0.0000   466.0000 </r>
       <r>     4.0657     0.0000   466.0000 </r>
       <r>     4.2204     0.0000   466.0000 </r>
       <r>     4.3752     2.3230   466.3594 </r>
       <r>     4.5299    37.4165   472.1488 </r>
       <r>     4.6846    76.1812   483.9360 </r>
       <r>     4.8393    68.4990   494.5347 </r>
       <r>     4.9941    65.8650   504.7258 </r>
       <r>     5.1488    64.0221   514.6317 </r>
       <r>     5.3035    67.9040   525.1383 </r>
       <r>     5.4583    83.6957   538.0882 </r>
       <r>     5.6130    89.2205   551.8930 </r>
       <r>     5.7677    60.2564   561.2163 </r>
       <r>     5.9224    38.6859   567.2021 </r>
       <r>     6.0772    72.0458   578.3495 </r>
       <r>     6.2319    69.9517   589.1729 </r>
       <r>     6.3866    33.8728   594.4139 </r>
       <r>     6.5413    22.6676   597.9212 </r>
       <r>     6.6961    29.5716   602.4967 </r>
       <r>     6.8508    16.2052   605.0041 </r>
       <r>     7.0055     7.7497   606.2032 </r>
       <r>     7.1603    16.7635   608.7969 </r>
       <r>     7.3150    10.3180   610.3934 </r>
       <r>     7.4697    16.2482   612.9074 </r>
       <r>     7.6244    18.2809   615.7360 </r>
       <r>     7.7792    18.9685   618.6709 </r>
       <r>     7.9339    18.4957   621.5327 </r>
       <r>     8.0886    22.3970   624.9981 </r>
       <r>     8.2433    27.6807   629.2811 </r>
       <r>     8.3981    26.3962   633.3653 </r>
       <r>     8.5528    27.6011   637.6359 </r>
       <r>     8.7075    20.6747   640.8348 </r>
       <r>     8.8622    26.3563   644.9128 </r>
       <r>     9.0170    29.2307   649.4356 </r>
       <r>     9.1717    32.3341   654.4386 </r>
       <r>     9.3264    38.0534   660.3264 </r>
       <r>     9.4812    42.3827   666.8842 </r>
       <r>     9.6359    47.1279   674.1761 </r>
       <r>     9.7906    53.3089   682.4244 </r>
       <r>     9.9453    59.6355   691.6516 </r>
       <r>    10.1001    55.2651   700.2026 </r>
       <r>    10.2548    55.5105   708.7916 </r>
       <r>    10.4095    51.2138   716.7157 </r>
       <r>    10.5642    58.0509   725.6978 </r>
       <r>    10.7190    49.7602   733.3970 </r>
       <r>    10.8737    48.4347   740.8912 </r>
       <r>    11.0284    48.4798   748.3923 </r>
       <r>    11.1831    58.0894   757.3803 </r>
       <r>    11.3379    52.3140   765.4746 </r>
       <r>    11.4926    16.3116   767.9985 </r>
       <r>    11.6473     0.0099   768.0000 </r>
       <r>    11.8021     0.0000   768.0000 </r>
       <r>    11.9568     0.0000   768.0000 </r>
       <r>    12.1115     0.0000   768.0000 </r>
       <r>    12.2662     0.0000   768.0000 </r>
       <r>    12.4210     0.0000   768.0000 </r>
       <r>    12.5757     0.0000   768.0000 </r>
       <r>    12.7304     0.0000   768.0000 </r>
       <r>    12.8851     0.0000   768.0000 </r>
       <r>    13.0399     0.0000   768.0000 </r>
       <r>    13.1946     0.0000   768.0000 </r>
       <r>    13.3493     0.0000   768.0000 </r>
       <r>    13.5040     0.0000   768.0000 </r>
      </set>
     </set>
    </array>
   </total>
  </dos>
 </calculation>
 <structure name="finalpos" >
  <crystal>
   <varray name="basis" >
    <v>      11.21516784      -0.02571547       0.02797065 </v>
    <v>      -0.02574135      11.20188549       0.03869350 </v>
    <v>       0.03969553       0.05497145      15.74777677 </v>
   </varray>
   <i name="volume">   1978.36255493 </i>
   <varray name="rec_basis" >
    <v>       0.08916599       0.00020568      -0.00022548 </v>
    <v>       0.00020547       0.08927224      -0.00031214 </v>
    <v>      -0.00015888      -0.00021971       0.06350219 </v>
   </varray>
  </crystal>
  <varray name="positions" >
   <v>       0.00386126       0.24379876       0.12489759 </v>
   <v>       0.00526383       0.25061228       0.62674493 </v>
   <v>       0.00280133       0.74902187       0.12077254 </v>
   <v>       0.00275146       0.74231526       0.62674116 </v>
   <v>       0.50795260       0.25149910       0.12271668 </v>
   <v>       0.49906635       0.25516732       0.62872815 </v>
   <v>       0.49662192       0.74695894       0.12569523 </v>
   <v>       0.49106985       0.76487321       0.61737686 </v>
   <v>       0.00634167       0.24719838       0.37744204 </v>
   <v>       0.00689415       0.24982697       0.87755956 </v>
   <v>       0.99325729       0.74568051       0.37382194 </v>
   <v>       0.00234989       0.74735396       0.87769935 </v>
   <v>       0.50445406       0.25366419       0.37436156 </v>
   <v>       0.49770453       0.25868539       0.87179096 </v>
   <v>       0.49692037       0.74367600       0.37443517 </v>
   <v>       0.49521474       0.75005287       0.87758508 </v>
   <v>       0.24173796       0.99608228       0.11945674 </v>
   <v>       0.25140356       0.00804995       0.62929859 </v>
   <v>       0.24881689       0.49857514       0.12598678 </v>
   <v>       0.24148514       0.49124507       0.62768355 </v>
   <v>       0.76047777       0.00404266       0.12305054 </v>
   <v>       0.74789685       0.01319778       0.62178503 </v>
   <v>       0.74527488       0.50909270       0.12687206 </v>
   <v>       0.75196164       0.49877904       0.62289721 </v>
   <v>       0.24938496       0.99342025       0.37580372 </v>
   <v>       0.24557796       0.00116993       0.87626625 </v>
   <v>       0.24989400       0.48545482       0.36811561 </v>
   <v>       0.23716640       0.49944902       0.87485015 </v>
   <v>       0.75232500       0.00190371       0.37333811 </v>
   <v>       0.75691725       0.00089560       0.88016866 </v>
   <v>       0.74837126       0.50343610       0.37720995 </v>
   <v>       0.75251118       0.50141391       0.87296091 </v>
   <v>       0.75361120       0.24876919       0.75549422 </v>
   <v>       0.49719452       0.49313711       0.25076674 </v>
   <v>       0.75275670       0.75581143       0.00050971 </v>
   <v>       0.25390468       0.25554925       0.75321995 </v>
   <v>       0.99408630       0.99117242       0.50310161 </v>
   <v>       0.50058001       0.01147083       0.49356926 </v>
   <v>       0.99590912       0.49946401       0.24937548 </v>
   <v>       0.25370790       0.75034803       0.99545662 </v>
   <v>       0.25510741       0.75359614       0.51052744 </v>
   <v>       0.00724251       0.50612210       0.00254549 </v>
   <v>       0.99001694       0.49001377       0.49817721 </v>
   <v>       0.49641138       0.00128626       0.01402885 </v>
   <v>       0.24348017       0.23612715       0.00037477 </v>
   <v>       0.51079311       0.51239662       0.99596417 </v>
   <v>       0.50840799       0.51367392       0.49939393 </v>
   <v>       0.99927881       0.49643784       0.74937463 </v>
   <v>       0.24221218       0.23511925       0.49879527 </v>
   <v>       0.01679443       0.00634618       0.25406617 </v>
   <v>       0.74655424       0.25038022       0.51069985 </v>
   <v>       0.23743982       0.75888843       0.75188936 </v>
   <v>       0.75466676       0.25591911       0.23753737 </v>
   <v>       0.24607214       0.25820061       0.24804576 </v>
   <v>       0.50393644       0.00352464       0.74127724 </v>
   <v>       0.24999380       0.74799944       0.23825142 </v>
   <v>       0.50696681       0.49324557       0.74443630 </v>
   <v>       0.00911458       0.01288616       0.75256104 </v>
   <v>       0.72744460       0.73807136       0.76156952 </v>
   <v>       0.99728753       0.99803557       0.99828243 </v>
   <v>       0.73890445       0.74040072       0.24776320 </v>
   <v>       0.51488105       0.99061651       0.25230946 </v>
   <v>       0.75109276       0.75581390       0.48771255 </v>
   <v>       0.74124190       0.24007798       0.99796793 </v>
   <v>       0.15304728       0.11134136       0.24955876 </v>
   <v>       0.12967165       0.12953934       0.76138917 </v>
   <v>       0.12372780       0.61884766       0.23443952 </v>
   <v>       0.12189212       0.62011437       0.75805864 </v>
   <v>       0.47003459       0.00656531       0.13426976 </v>
   <v>       0.98098519       0.98127985       0.37646889 </v>
   <v>       0.61063285       0.63285047       0.25266476 </v>
   <v>       0.60301622       0.63696721       0.72049388 </v>
   <v>       0.38863970       0.35588095       0.24962774 </v>
   <v>       0.36936675       0.38651630       0.74796029 </v>
   <v>       0.37645042       0.86264634       0.26858449 </v>
   <v>       0.38241067       0.87398571       0.75432247 </v>
   <v>       0.87607020       0.37281716       0.27952918 </v>
   <v>       0.87604522       0.37261659       0.73395361 </v>
   <v>       0.37073683       0.61388758       0.00647669 </v>
   <v>       0.02342466       0.52318816       0.37964408 </v>
   <v>       0.37824901       0.12478754       0.75867892 </v>
   <v>       0.36374931       0.61328746       0.25368499 </v>
   <v>       0.62166753       0.12549184       0.77769432 </v>
   <v>       0.87506870       0.12470742       0.25562626 </v>
   <v>       0.86650194       0.11497647       0.74747792 </v>
   <v>       0.87439274       0.62850308       0.24798022 </v>
   <v>       0.85482145       0.63563194       0.73758592 </v>
   <v>       0.12233543       0.37119230       0.24884242 </v>
   <v>       0.12030177       0.85890186       0.26582749 </v>
   <v>       0.62969408       0.37924358       0.75221543 </v>
   <v>       0.11167401       0.86962553       0.75028535 </v>
   <v>       0.64981334       0.89121482       0.24861208 </v>
   <v>       0.63655703       0.88000124       0.75425536 </v>
   <v>       0.12303177       0.37225412       0.75014748 </v>
   <v>       0.61777288       0.87747930       0.49450829 </v>
   <v>       0.37676897       0.88024438       0.98205724 </v>
   <v>       0.36788438       0.89811317       0.50287153 </v>
   <v>       0.87132358       0.36931821       0.48806149 </v>
   <v>       0.87118498       0.87933502       0.00698362 </v>
   <v>       0.86155871       0.87410818       0.52733942 </v>
   <v>       0.13193779       0.11100011      -0.00002526 </v>
   <v>       0.13384895       0.10294111       0.49611713 </v>
   <v>       0.12635974       0.62469735       0.00663365 </v>
   <v>       0.63332295       0.11149579       0.00093106 </v>
   <v>       0.64050429       0.12602075       0.47700197 </v>
   <v>       0.63049343       0.62878983       0.99419320 </v>
   <v>       0.62605597       0.63636683       0.50731082 </v>
   <v>       0.12135709       0.37000045       0.00459373 </v>
   <v>       0.14004568       0.37942916       0.49873283 </v>
   <v>       0.12488997       0.86632555       0.99186427 </v>
   <v>       0.63734574       0.38481151       0.25962877 </v>
   <v>       0.62035451       0.37288310       0.49516680 </v>
   <v>       0.61723878       0.87249308       0.99454663 </v>
   <v>       0.39002111       0.13294850       0.98485496 </v>
   <v>       0.39582958       0.15555521       0.50588183 </v>
   <v>       0.35257236       0.61921619       0.47985703 </v>
   <v>       0.88712180       0.14076417       0.00469901 </v>
   <v>       0.88241656       0.12741334       0.49882014 </v>
   <v>       0.87063038       0.61784579       0.00268238 </v>
   <v>       0.87699512       0.62997690       0.50571290 </v>
   <v>       0.99411955       0.98011399       0.13543462 </v>
   <v>       0.00548502       0.99981543       0.62825211 </v>
   <v>       0.97474476       0.47505498       0.12534843 </v>
   <v>       0.01269627       0.51069655       0.61901508 </v>
   <v>       0.76642637       0.28167360       0.11753224 </v>
   <v>       0.51685251       0.01582199       0.62225985 </v>
   <v>       0.49942792       0.49142280       0.12396241 </v>
   <v>       0.47138026       0.48971148       0.61666162 </v>
   <v>       0.98302987       0.98770352       0.87201210 </v>
   <v>       0.98126451       0.48650927       0.87847462 </v>
   <v>       0.48026391       0.02218673       0.36946971 </v>
   <v>       0.26194877       0.27195451       0.88017612 </v>
   <v>       0.49178249       0.49230374       0.37782986 </v>
   <v>       0.61845422       0.14152471       0.24802496 </v>
   <v>       0.26510486       0.24815511       0.37460388 </v>
   <v>       0.26432518       0.72938511       0.87068894 </v>
   <v>       0.48365719       0.51984983       0.86644558 </v>
   <v>       0.77641652       0.27296974       0.87892114 </v>
   <v>       0.77016111       0.76732487       0.36855090 </v>
   <v>       0.77745318       0.76920142       0.87298314 </v>
   <v>       0.60863937       0.36958433       0.98999581 </v>
   <v>       0.25086485       0.24622964       0.62628228 </v>
   <v>       0.26333140       0.76836685       0.11975970 </v>
   <v>       0.26699723       0.72030658       0.63737195 </v>
   <v>       0.27485705       0.25049791       0.12146311 </v>
   <v>       0.73134999       0.23814177       0.62964997 </v>
   <v>       0.75141128       0.75661091       0.12616106 </v>
   <v>       0.10888855       0.84295137       0.49612967 </v>
  </varray>
 </structure>
</modeling>
