       N       E                     dE             d eps       ncg     rms          rms(c)
DAV:   1    -0.115209485094E+04   -0.11521E+04   -0.82528E-02 13056   0.659E-01    0.199E-02
RMM:   2    -0.115209485170E+04   -0.76005E-06   -0.20159E-05  7040   0.797E-03    0.272E-02
RMM:   3    -0.115209485241E+04   -0.70907E-06   -0.78351E-06  6596   0.516E-03    0.586E-03
RMM:   4    -0.115209485360E+04   -0.11976E-05   -0.36412E-06  4436   0.295E-03    0.332E-03
RMM:   5    -0.115209485449E+04   -0.88719E-06   -0.23108E-06  4091   0.290E-03    0.387E-03
RMM:   6    -0.115209485480E+04   -0.31100E-06   -0.13334E-06  3240   0.220E-03    0.867E-04
RMM:   7    -0.115209485492E+04   -0.12141E-06   -0.64164E-07  2600   0.218E-03    0.450E-04
RMM:   8    -0.115209485499E+04   -0.64960E-07   -0.17904E-07  1961   0.184E-03
   1 F= -.11520949E+04 E0= -.11520949E+04  d E =-.115209E+04  mag=    20.0000
       N       E                     dE             d eps       ncg     rms          rms(c)
DAV:   1    -0.115209534514E+04   -0.49022E-03   -0.81174E-01 12528   0.107E+00    0.364E-01
RMM:   2    -0.115209663203E+04   -0.12869E-02   -0.26421E-02 12288   0.214E-01    0.320E-01
RMM:   3    -0.115209641812E+04    0.21391E-03   -0.13689E-03 12722   0.616E-02    0.206E-01
RMM:   4    -0.115209617714E+04    0.24099E-03   -0.71279E-04 10767   0.295E-02    0.109E-01
RMM:   5    -0.115209612819E+04    0.48944E-04   -0.13972E-04  8194   0.177E-02    0.588E-02
RMM:   6    -0.115209612930E+04   -0.11088E-05   -0.37959E-05  7223   0.933E-03    0.280E-02
RMM:   7    -0.115209612891E+04    0.38826E-06   -0.16813E-05  7040   0.642E-03    0.247E-02
RMM:   8    -0.115209612856E+04    0.34861E-06   -0.96492E-06  6559   0.451E-03
   2 F= -.11520961E+04 E0= -.11520961E+04  d E =-.127357E-02  mag=    20.0000
       N       E                     dE             d eps       ncg     rms          rms(c)
DAV:   1    -0.115209650109E+04   -0.37218E-03   -0.94696E-02 13168   0.364E-01    0.124E-01
RMM:   2    -0.115209665100E+04   -0.14991E-03   -0.30561E-03 12288   0.734E-02    0.109E-01
RMM:   3    -0.115209662160E+04    0.29406E-04   -0.11643E-04  7319   0.214E-02    0.721E-02
RMM:   4    -0.115209659594E+04    0.25654E-04   -0.84807E-05  6954   0.121E-02    0.475E-02
RMM:   5    -0.115209659235E+04    0.35927E-05   -0.27982E-05  6549   0.806E-03    0.399E-02
RMM:   6    -0.115209659322E+04   -0.86597E-06   -0.97160E-06  5702   0.444E-03    0.103E-02
RMM:   7    -0.115209659385E+04   -0.63116E-06   -0.31776E-06  4494   0.310E-03    0.106E-02
RMM:   8    -0.115209659441E+04   -0.56493E-06   -0.19229E-06  4043   0.250E-03
   3 F= -.11520966E+04 E0= -.11520966E+04  d E =-.173942E-02  mag=    20.0000
       N       E                     dE             d eps       ncg     rms          rms(c)
DAV:   1    -0.115209696288E+04   -0.36903E-03   -0.67335E-01 12608   0.974E-01    0.245E-01
RMM:   2    -0.115209853369E+04   -0.15708E-02   -0.18061E-02 12303   0.170E-01    0.176E-01
RMM:   3    -0.115209850701E+04    0.26679E-04   -0.83758E-04 11604   0.541E-02    0.111E-01
RMM:   4    -0.115209844785E+04    0.59163E-04   -0.26595E-04  8391   0.190E-02    0.626E-02
RMM:   5    -0.115209843940E+04    0.84545E-05   -0.68635E-05  7163   0.125E-02    0.436E-02
RMM:   6    -0.115209844180E+04   -0.24071E-05   -0.23843E-05  6952   0.766E-03    0.121E-02
RMM:   7    -0.115209844298E+04   -0.11736E-05   -0.12852E-05  6573   0.526E-03    0.112E-02
RMM:   8    -0.115209844370E+04   -0.72495E-06   -0.77361E-06  6014   0.428E-03
   4 F= -.11520984E+04 E0= -.11520984E+04  d E =-.184929E-02  mag=    20.0000
       N       E                     dE             d eps       ncg     rms          rms(c)
DAV:   1    -0.115209787363E+04    0.56935E-03   -0.46957E-01 12592   0.814E-01    0.205E-01
RMM:   2    -0.115209898476E+04   -0.11111E-02   -0.12763E-02 12336   0.143E-01    0.147E-01
RMM:   3    -0.115209896220E+04    0.22563E-04   -0.57840E-04 10662   0.440E-02    0.935E-02
RMM:   4    -0.115209892143E+04    0.40765E-04   -0.19394E-04  7679   0.162E-02    0.521E-02
RMM:   5    -0.115209891747E+04    0.39651E-05   -0.56381E-05  7078   0.110E-02    0.412E-02
RMM:   6    -0.115209891950E+04   -0.20310E-05   -0.22012E-05  6908   0.712E-03    0.110E-02
RMM:   7    -0.115209892061E+04   -0.11133E-05   -0.12073E-05  6549   0.513E-03    0.115E-02
RMM:   8    -0.115209892136E+04   -0.74477E-06   -0.80513E-06  6009   0.416E-03
   5 F= -.11520989E+04 E0= -.11520989E+04  d E =-.232694E-02  mag=    20.0000
       N       E                     dE             d eps       ncg     rms          rms(c)
DAV:   1    -0.115209924760E+04   -0.32699E-03   -0.43737E-01 12864   0.781E-01    0.170E-01
RMM:   2    -0.115210025711E+04   -0.10095E-02   -0.11677E-02 12316   0.135E-01    0.122E-01
RMM:   3    -0.115210023219E+04    0.24919E-04   -0.50733E-04 10248   0.426E-02    0.786E-02
RMM:   4    -0.115210020488E+04    0.27312E-04   -0.14936E-04  7312   0.150E-02    0.540E-02
RMM:   5    -0.115210020182E+04    0.30645E-05   -0.44185E-05  7034   0.975E-03    0.402E-02
RMM:   6    -0.115210020451E+04   -0.26909E-05   -0.21247E-05  6923   0.685E-03    0.108E-02
RMM:   7    -0.115210020620E+04   -0.16912E-05   -0.11183E-05  6680   0.503E-03    0.119E-02
RMM:   8    -0.115210020711E+04   -0.91128E-06   -0.69295E-06  5799   0.404E-03
   6 F= -.11521002E+04 E0= -.11521002E+04  d E =-.128575E-02  mag=    20.0000
       N       E                     dE             d eps       ncg     rms          rms(c)
DAV:   1    -0.115209866877E+04    0.15374E-02   -0.10518E+00 12816   0.121E+00    0.265E-01
RMM:   2    -0.115210108821E+04   -0.24194E-02   -0.28017E-02 12306   0.209E-01    0.189E-01
RMM:   3    -0.115210103668E+04    0.51525E-04   -0.12785E-03 12077   0.657E-02    0.121E-01
RMM:   4    -0.115210097289E+04    0.63786E-04   -0.40094E-04  9755   0.221E-02    0.783E-02
RMM:   5    -0.115210095578E+04    0.17112E-04   -0.82704E-05  7236   0.140E-02    0.532E-02
RMM:   6    -0.115210096109E+04   -0.53055E-05   -0.37109E-05  7068   0.909E-03    0.150E-02
RMM:   7    -0.115210096384E+04   -0.27549E-05   -0.18593E-05  6968   0.678E-03    0.124E-02
RMM:   8    -0.115210096556E+04   -0.17178E-05   -0.12371E-05  6673   0.505E-03
   7 F= -.11521010E+04 E0= -.11521010E+04  d E =-.204420E-02  mag=    20.0000
       N       E                     dE             d eps       ncg     rms          rms(c)
DAV:   1    -0.115210084006E+04    0.12378E-03   -0.62893E-01 12680   0.928E-01    0.186E-01
RMM:   2    -0.115210225361E+04   -0.14135E-02   -0.16431E-02 12325   0.159E-01    0.122E-01
RMM:   3    -0.115210222039E+04    0.33223E-04   -0.73649E-04 11026   0.498E-02    0.785E-02
RMM:   4    -0.115210218334E+04    0.37044E-04   -0.20575E-04  7782   0.165E-02    0.532E-02
RMM:   5    -0.115210217645E+04    0.68880E-05   -0.50692E-05  7074   0.107E-02    0.350E-02
RMM:   6    -0.115210217857E+04   -0.21104E-05   -0.23822E-05  6952   0.695E-03    0.123E-02
RMM:   7    -0.115210217927E+04   -0.70683E-06   -0.12321E-05  6652   0.561E-03    0.114E-02
RMM:   8    -0.115210217969E+04   -0.42142E-06   -0.81686E-06  5949   0.397E-03
   8 F= -.11521022E+04 E0= -.11521022E+04  d E =-.121413E-02  mag=    20.0000
       N       E                     dE             d eps       ncg     rms          rms(c)
DAV:   1    -0.115210092302E+04    0.12562E-02   -0.86534E-01 12560   0.109E+00    0.219E-01
RMM:   2    -0.115210286266E+04   -0.19396E-02   -0.22547E-02 12315   0.186E-01    0.143E-01
RMM:   3    -0.115210281757E+04    0.45097E-04   -0.10189E-03 11744   0.584E-02    0.917E-02
RMM:   4    -0.115210276663E+04    0.50938E-04   -0.28452E-04  8446   0.191E-02    0.665E-02
RMM:   5    -0.115210275544E+04    0.11194E-04   -0.61086E-05  7137   0.120E-02    0.380E-02
RMM:   6    -0.115210275782E+04   -0.23879E-05   -0.30815E-05  7018   0.784E-03    0.128E-02
RMM:   7    -0.115210275874E+04   -0.91565E-06   -0.15034E-05  6732   0.616E-03    0.116E-02
RMM:   8    -0.115210275928E+04   -0.54300E-06   -0.99394E-06  6322   0.435E-03
   9 F= -.11521028E+04 E0= -.11521028E+04  d E =-.179372E-02  mag=    20.0000
       N       E                     dE             d eps       ncg     rms          rms(c)
DAV:   1    -0.115210226324E+04    0.49550E-03   -0.79350E-01 12680   0.103E+00    0.202E-01
RMM:   2    -0.115210411312E+04   -0.18499E-02   -0.20555E-02 12314   0.177E-01    0.143E-01
RMM:   3    -0.115210408305E+04    0.30074E-04   -0.90230E-04 11336   0.538E-02    0.915E-02
RMM:   4    -0.115210402880E+04    0.54250E-04   -0.24420E-04  8278   0.175E-02    0.624E-02
RMM:   5    -0.115210401572E+04    0.13077E-04   -0.72076E-05  7209   0.120E-02    0.316E-02
RMM:   6    -0.115210401872E+04   -0.30011E-05   -0.24955E-05  6962   0.752E-03    0.123E-02
RMM:   7    -0.115210401951E+04   -0.79127E-06   -0.12423E-05  6595   0.524E-03    0.985E-03
RMM:   8    -0.115210401993E+04   -0.41346E-06   -0.75480E-06  5945   0.411E-03
  10 F= -.11521040E+04 E0= -.11521040E+04  d E =-.126065E-02  mag=    20.0000
       N       E                     dE             d eps       ncg     rms          rms(c)
DAV:   1    -0.115210271100E+04    0.13085E-02   -0.78931E-01 12728   0.103E+00    0.202E-01
RMM:   2    -0.115210455160E+04   -0.18406E-02   -0.20453E-02 12311   0.176E-01    0.143E-01
RMM:   3    -0.115210452260E+04    0.29004E-04   -0.90623E-04 11425   0.543E-02    0.915E-02
RMM:   4    -0.115210446807E+04    0.54531E-04   -0.24239E-04  8278   0.176E-02    0.611E-02
RMM:   5    -0.115210445537E+04    0.12695E-04   -0.73469E-05  7229   0.121E-02    0.324E-02
RMM:   6    -0.115210445827E+04   -0.29003E-05   -0.24846E-05  6982   0.764E-03    0.123E-02
RMM:   7    -0.115210445910E+04   -0.82926E-06   -0.12696E-05  6625   0.519E-03    0.995E-03
RMM:   8    -0.115210445952E+04   -0.41546E-06   -0.75994E-06  6036   0.425E-03
  11 F= -.11521045E+04 E0= -.11521045E+04  d E =-.170024E-02  mag=    20.0000
       N       E                     dE             d eps       ncg     rms          rms(c)
DAV:   1    -0.115210382987E+04    0.62924E-03   -0.72459E-01 12704   0.982E-01    0.189E-01
RMM:   2    -0.115210554086E+04   -0.17110E-02   -0.18727E-02 12330   0.168E-01    0.123E-01
RMM:   3    -0.115210552163E+04    0.19229E-04   -0.80929E-04 11112   0.512E-02    0.805E-02
RMM:   4    -0.115210547791E+04    0.43719E-04   -0.20951E-04  7890   0.166E-02    0.549E-02
RMM:   5    -0.115210547265E+04    0.52592E-05   -0.52352E-05  7093   0.108E-02    0.406E-02
RMM:   6    -0.115210547611E+04   -0.34506E-05   -0.25580E-05  6977   0.719E-03    0.112E-02
RMM:   7    -0.115210547777E+04   -0.16688E-05   -0.11498E-05  6659   0.535E-03    0.115E-02
RMM:   8    -0.115210547875E+04   -0.97451E-06   -0.72277E-06  5781   0.381E-03
  12 F= -.11521055E+04 E0= -.11521055E+04  d E =-.101923E-02  mag=    20.0000
       N       E                     dE             d eps       ncg     rms          rms(c)
DAV:   1    -0.115210340910E+04    0.20687E-02   -0.11166E+00 12656   0.122E+00    0.234E-01
RMM:   2    -0.115210604198E+04   -0.26329E-02   -0.28817E-02 12329   0.209E-01    0.153E-01
RMM:   3    -0.115210601584E+04    0.26135E-04   -0.12603E-03 11803   0.637E-02    0.998E-02
RMM:   4    -0.115210595049E+04    0.65352E-04   -0.34399E-04  9159   0.204E-02    0.654E-02
RMM:   5    -0.115210593903E+04    0.11458E-04   -0.74133E-05  7200   0.130E-02    0.461E-02
RMM:   6    -0.115210594397E+04   -0.49376E-05   -0.34253E-05  7038   0.846E-03    0.127E-02
RMM:   7    -0.115210594613E+04   -0.21623E-05   -0.15031E-05  6843   0.616E-03    0.118E-02
RMM:   8    -0.115210594746E+04   -0.13212E-05   -0.98220E-06  6454   0.438E-03
  13 F= -.11521059E+04 E0= -.11521059E+04  d E =-.148794E-02  mag=    20.0000
       N       E                     dE             d eps       ncg     rms          rms(c)
DAV:   1    -0.115210544006E+04    0.50607E-03   -0.64339E-01 12656   0.925E-01    0.179E-01
RMM:   2    -0.115210691887E+04   -0.14788E-02   -0.16487E-02 12352   0.158E-01    0.116E-01
RMM:   3    -0.115210689290E+04    0.25977E-04   -0.72293E-04 10832   0.488E-02    0.758E-02
RMM:   4    -0.115210684893E+04    0.43966E-04   -0.19447E-04  7758   0.162E-02    0.488E-02
RMM:   5    -0.115210684434E+04    0.45950E-05   -0.49130E-05  7071   0.104E-02    0.397E-02
RMM:   6    -0.115210684635E+04   -0.20098E-05   -0.22668E-05  6893   0.683E-03    0.120E-02
RMM:   7    -0.115210684719E+04   -0.84224E-06   -0.11044E-05  6548   0.516E-03    0.121E-02
RMM:   8    -0.115210684767E+04   -0.48196E-06   -0.69392E-06  5811   0.381E-03
  14 F= -.11521068E+04 E0= -.11521068E+04  d E =-.900215E-03  mag=    20.0000
       N       E                     dE             d eps       ncg     rms          rms(c)
DAV:   1    -0.115210608910E+04    0.75809E-03   -0.47677E-01 12696   0.796E-01    0.154E-01
RMM:   2    -0.115210718487E+04   -0.10958E-02   -0.12217E-02 12339   0.136E-01    0.999E-02
RMM:   3    -0.115210716431E+04    0.20557E-04   -0.52218E-04 10118   0.422E-02    0.656E-02
RMM:   4    -0.115210713198E+04    0.32333E-04   -0.13981E-04  7314   0.144E-02    0.441E-02
RMM:   5    -0.115210712930E+04    0.26823E-05   -0.39155E-05  7032   0.918E-03    0.394E-02
RMM:   6    -0.115210713047E+04   -0.11744E-05   -0.20478E-05  6846   0.656E-03    0.102E-02
RMM:   7    -0.115210713127E+04   -0.79481E-06   -0.97669E-06  6457   0.465E-03    0.118E-02
RMM:   8    -0.115210713165E+04   -0.37879E-06   -0.57459E-06  5403   0.371E-03
  15 F= -.11521071E+04 E0= -.11521071E+04  d E =-.118419E-02  mag=    20.0000
       N       E                     dE             d eps       ncg     rms          rms(c)
DAV:   1    -0.115210630677E+04    0.82449E-03   -0.78346E-01 12664   0.102E+00    0.189E-01
RMM:   2    -0.115210811464E+04   -0.18079E-02   -0.19983E-02 12327   0.173E-01    0.133E-01
RMM:   3    -0.115210808144E+04    0.33193E-04   -0.85500E-04 11168   0.529E-02    0.869E-02
RMM:   4    -0.115210803638E+04    0.45062E-04   -0.24224E-04  8215   0.174E-02    0.535E-02
RMM:   5    -0.115210802800E+04    0.83809E-05   -0.60197E-05  7102   0.111E-02    0.280E-02
RMM:   6    -0.115210803062E+04   -0.26217E-05   -0.21141E-05  6871   0.696E-03    0.115E-02
RMM:   7    -0.115210803166E+04   -0.10348E-05   -0.11199E-05  6446   0.485E-03    0.908E-03
RMM:   8    -0.115210803224E+04   -0.58803E-06   -0.66749E-06  5777   0.402E-03
  16 F= -.11521080E+04 E0= -.11521080E+04  d E =-.900598E-03  mag=    20.0000
       N       E                     dE             d eps       ncg     rms          rms(c)
DAV:   1    -0.115210680366E+04    0.12280E-02   -0.68949E-01 12680   0.954E-01    0.178E-01
RMM:   2    -0.115210839632E+04   -0.15927E-02   -0.17601E-02 12341   0.163E-01    0.125E-01
RMM:   3    -0.115210836868E+04    0.27638E-04   -0.76503E-04 11011   0.504E-02    0.817E-02
RMM:   4    -0.115210832886E+04    0.39817E-04   -0.21488E-04  7970   0.165E-02    0.493E-02
RMM:   5    -0.115210832235E+04    0.65092E-05   -0.55520E-05  7080   0.107E-02    0.271E-02
RMM:   6    -0.115210832477E+04   -0.24126E-05   -0.19975E-05  6842   0.673E-03    0.110E-02
RMM:   7    -0.115210832577E+04   -0.10053E-05   -0.10781E-05  6434   0.478E-03    0.888E-03
RMM:   8    -0.115210832635E+04   -0.58276E-06   -0.64809E-06  5707   0.395E-03
  17 F= -.11521083E+04 E0= -.11521083E+04  d E =-.119471E-02  mag=    20.0000
       N       E                     dE             d eps       ncg     rms          rms(c)
DAV:   1    -0.115210749657E+04    0.82920E-03   -0.71657E-01 12832   0.972E-01    0.185E-01
RMM:   2    -0.115210915076E+04   -0.16542E-02   -0.18084E-02 12337   0.163E-01    0.125E-01
RMM:   3    -0.115210912250E+04    0.28258E-04   -0.78477E-04 11008   0.507E-02    0.810E-02
RMM:   4    -0.115210908337E+04    0.39136E-04   -0.22437E-04  8102   0.166E-02    0.465E-02
RMM:   5    -0.115210907989E+04    0.34809E-05   -0.55651E-05  7090   0.106E-02    0.155E-02
RMM:   6    -0.115210908214E+04   -0.22585E-05   -0.19650E-05  6785   0.657E-03    0.100E-02
RMM:   7    -0.115210908312E+04   -0.97585E-06   -0.10849E-05  6351   0.472E-03    0.587E-03
RMM:   8    -0.115210908369E+04   -0.57074E-06   -0.68320E-06  5770   0.392E-03
  18 F= -.11521091E+04 E0= -.11521091E+04  d E =-.757337E-03  mag=    20.0000
       N       E                     dE             d eps       ncg     rms          rms(c)
DAV:   1    -0.115210764612E+04    0.14370E-02   -0.79410E-01 12776   0.102E+00    0.195E-01
RMM:   2    -0.115210947550E+04   -0.18294E-02   -0.19998E-02 12340   0.172E-01    0.131E-01
RMM:   3    -0.115210944523E+04    0.30262E-04   -0.87552E-04 11245   0.538E-02    0.852E-02
RMM:   4    -0.115210940207E+04    0.43163E-04   -0.25001E-04  8290   0.174E-02    0.493E-02
RMM:   5    -0.115210939803E+04    0.40386E-05   -0.59892E-05  7125   0.111E-02    0.170E-02
RMM:   6    -0.115210940056E+04   -0.25311E-05   -0.21434E-05  6851   0.687E-03    0.107E-02
RMM:   7    -0.115210940163E+04   -0.10695E-05   -0.11905E-05  6476   0.498E-03    0.656E-03
RMM:   8    -0.115210940228E+04   -0.64404E-06   -0.75773E-06  5922   0.408E-03
  19 F= -.11521094E+04 E0= -.11521094E+04  d E =-.107592E-02  mag=    20.0000
       N       E                     dE             d eps       ncg     rms          rms(c)
DAV:   1    -0.115210861806E+04    0.78357E-03   -0.69939E-01 12864   0.954E-01    0.190E-01
RMM:   2    -0.115211021343E+04   -0.15954E-02   -0.17713E-02 12345   0.161E-01    0.134E-01
RMM:   3    -0.115211018158E+04    0.31846E-04   -0.77861E-04 10936   0.499E-02    0.866E-02
RMM:   4    -0.115211013980E+04    0.41783E-04   -0.23004E-04  8091   0.168E-02    0.523E-02
RMM:   5    -0.115211013327E+04    0.65351E-05   -0.53792E-05  7080   0.107E-02    0.303E-02
RMM:   6    -0.115211013557E+04   -0.23036E-05   -0.20950E-05  6894   0.668E-03    0.118E-02
RMM:   7    -0.115211013624E+04   -0.67419E-06   -0.10980E-05  6502   0.498E-03    0.970E-03
RMM:   8    -0.115211013664E+04   -0.39978E-06   -0.68903E-06  5666   0.385E-03
  20 F= -.11521101E+04 E0= -.11521101E+04  d E =-.734367E-03  mag=    20.0000
       N       E                     dE             d eps       ncg     rms          rms(c)
DAV:   1    -0.115210979840E+04    0.33784E-03   -0.20753E-01 12672   0.520E-01    0.104E-01
RMM:   2    -0.115211027626E+04   -0.47786E-03   -0.53028E-03 12259   0.881E-02    0.732E-02
RMM:   3    -0.115211026331E+04    0.12952E-04   -0.20434E-04  7748   0.271E-02    0.475E-02
RMM:   4    -0.115211025186E+04    0.11451E-04   -0.72238E-05  7043   0.105E-02    0.294E-02
RMM:   5    -0.115211025121E+04    0.64657E-06   -0.21274E-05  6815   0.709E-03    0.227E-02
RMM:   6    -0.115211025221E+04   -0.99328E-06   -0.10208E-05  6187   0.429E-03    0.645E-03
RMM:   7    -0.115211025251E+04   -0.30968E-06   -0.49622E-06  5308   0.376E-03    0.654E-03
RMM:   8    -0.115211025271E+04   -0.19562E-06   -0.32120E-06  4140   0.263E-03
  21 F= -.11521103E+04 E0= -.11521103E+04  d E =-.850434E-03  mag=    20.0000
       N       E                     dE             d eps       ncg     rms          rms(c)
DAV:   1    -0.115210910491E+04    0.11476E-02   -0.84711E-01 12320   0.104E+00    0.201E-01
RMM:   2    -0.115211101784E+04   -0.19129E-02   -0.21014E-02 12319   0.175E-01    0.136E-01
RMM:   3    -0.115211098585E+04    0.31986E-04   -0.93303E-04 11187   0.555E-02    0.871E-02
RMM:   4    -0.115211093383E+04    0.52023E-04   -0.26687E-04  8417   0.181E-02    0.531E-02
RMM:   5    -0.115211092760E+04    0.62279E-05   -0.58492E-05  7101   0.113E-02    0.333E-02
RMM:   6    -0.115211093070E+04   -0.31014E-05   -0.22423E-05  6827   0.693E-03    0.118E-02
RMM:   7    -0.115211093200E+04   -0.13013E-05   -0.11353E-05  6508   0.508E-03    0.102E-02
RMM:   8    -0.115211093277E+04   -0.76211E-06   -0.70385E-06  5887   0.391E-03
  22 F= -.11521109E+04 E0= -.11521109E+04  d E =-.680056E-03  mag=    20.0000
       N       E                     dE             d eps       ncg     rms          rms(c)
DAV:   1    -0.115211067943E+04    0.25257E-03   -0.15620E-01 12512   0.449E-01    0.864E-02
RMM:   2    -0.115211103813E+04   -0.35869E-03   -0.39278E-03 12254   0.757E-02    0.587E-02
RMM:   3    -0.115211102871E+04    0.94193E-05   -0.14783E-04  7370   0.228E-02    0.377E-02
RMM:   4    -0.115211102053E+04    0.81781E-05   -0.54137E-05  6992   0.915E-03    0.256E-02
RMM:   5    -0.115211102065E+04   -0.12391E-06   -0.15225E-05  6519   0.607E-03    0.183E-02
RMM:   6    -0.115211102164E+04   -0.98535E-06   -0.78827E-06  5810   0.372E-03    0.514E-03
RMM:   7    -0.115211102210E+04   -0.46211E-06   -0.37661E-06  4971   0.343E-03    0.546E-03
RMM:   8    -0.115211102237E+04   -0.27192E-06   -0.21959E-06  3584   0.235E-03
  23 F= -.11521110E+04 E0= -.11521110E+04  d E =-.769661E-03  mag=    20.0000
       N       E                     dE             d eps       ncg     rms          rms(c)
DAV:   1    -0.115211026109E+04    0.76101E-03   -0.65080E-01 12608   0.917E-01    0.179E-01
RMM:   2    -0.115211172672E+04   -0.14656E-02   -0.16135E-02 12315   0.153E-01    0.122E-01
RMM:   3    -0.115211170514E+04    0.21580E-04   -0.70846E-04 10725   0.484E-02    0.773E-02
RMM:   4    -0.115211165961E+04    0.45534E-04   -0.19258E-04  7778   0.157E-02    0.432E-02
RMM:   5    -0.115211165490E+04    0.47073E-05   -0.53933E-05  7067   0.103E-02    0.322E-02
RMM:   6    -0.115211165675E+04   -0.18537E-05   -0.18827E-05  6838   0.672E-03    0.120E-02
RMM:   7    -0.115211165754E+04   -0.78688E-06   -0.99277E-06  6394   0.445E-03    0.994E-03
RMM:   8    -0.115211165784E+04   -0.29606E-06   -0.55064E-06  5552   0.386E-03
  24 F= -.11521117E+04 E0= -.11521117E+04  d E =-.635465E-03  mag=    20.0000
       N       E                     dE             d eps       ncg     rms          rms(c)
DAV:   1    -0.115211145304E+04    0.20450E-03   -0.12813E-01 12400   0.407E-01    0.797E-02
RMM:   2    -0.115211174604E+04   -0.29300E-03   -0.32233E-03 12184   0.683E-02    0.546E-02
RMM:   3    -0.115211173842E+04    0.76237E-05   -0.11788E-04  7217   0.206E-02    0.345E-02
RMM:   4    -0.115211173059E+04    0.78220E-05   -0.45013E-05  6957   0.823E-03    0.205E-02
RMM:   5    -0.115211173025E+04    0.34775E-06   -0.13488E-05  6344   0.572E-03    0.220E-02
RMM:   6    -0.115211173078E+04   -0.53672E-06   -0.67496E-06  5752   0.360E-03    0.471E-03
RMM:   7    -0.115211173100E+04   -0.21710E-06   -0.31177E-06  4913   0.314E-03    0.572E-03
RMM:   8    -0.115211173110E+04   -0.98735E-07   -0.18851E-06  3512   0.229E-03
  25 F= -.11521117E+04 E0= -.11521117E+04  d E =-.708728E-03  mag=    20.0000
       N       E                     dE             d eps       ncg     rms          rms(c)
DAV:   1    -0.115211070750E+04    0.10235E-02   -0.68068E-01 12672   0.942E-01    0.182E-01
RMM:   2    -0.115211229864E+04   -0.15911E-02   -0.17136E-02 12326   0.159E-01    0.122E-01
RMM:   3    -0.115211228935E+04    0.92950E-05   -0.74907E-04 10766   0.500E-02    0.792E-02
RMM:   4    -0.115211224945E+04    0.39899E-04   -0.18747E-04  7687   0.160E-02    0.499E-02
RMM:   5    -0.115211224581E+04    0.36368E-05   -0.48788E-05  7009   0.103E-02    0.480E-02
RMM:   6    -0.115211224796E+04   -0.21489E-05   -0.22964E-05  6818   0.705E-03    0.113E-02
RMM:   7    -0.115211224888E+04   -0.92335E-06   -0.10494E-05  6493   0.493E-03    0.134E-02
RMM:   8    -0.115211224931E+04   -0.42829E-06   -0.61074E-06  5557   0.381E-03
  26 F= -.11521122E+04 E0= -.11521122E+04  d E =-.518212E-03  mag=    20.0000
       N       E                     dE             d eps       ncg     rms          rms(c)
DAV:   1    -0.115211200340E+04    0.24548E-03   -0.13006E-01 12464   0.412E-01    0.797E-02
RMM:   2    -0.115211231343E+04   -0.31003E-03   -0.33348E-03 12211   0.697E-02    0.540E-02
RMM:   3    -0.115211230820E+04    0.52301E-05   -0.12049E-04  7208   0.208E-02    0.352E-02
RMM:   4    -0.115211230221E+04    0.59907E-05   -0.42332E-05  6927   0.826E-03    0.260E-02
RMM:   5    -0.115211230187E+04    0.34223E-06   -0.12760E-05  6274   0.587E-03    0.250E-02
RMM:   6    -0.115211230222E+04   -0.35450E-06   -0.86185E-06  5942   0.366E-03    0.418E-03
RMM:   7    -0.115211230250E+04   -0.28094E-06   -0.31671E-06  4802   0.326E-03    0.651E-03
RMM:   8    -0.115211230263E+04   -0.12929E-06   -0.17583E-06  3361   0.217E-03
  27 F= -.11521123E+04 E0= -.11521123E+04  d E =-.571535E-03  mag=    20.0000
       N       E                     dE             d eps       ncg     rms          rms(c)
DAV:   1    -0.115211105292E+04    0.12496E-02   -0.75380E-01 12672   0.997E-01    0.192E-01
RMM:   2    -0.115211280423E+04   -0.17513E-02   -0.19056E-02 12322   0.168E-01    0.128E-01
RMM:   3    -0.115211279036E+04    0.13875E-04   -0.84595E-04 11111   0.534E-02    0.828E-02
RMM:   4    -0.115211274515E+04    0.45206E-04   -0.21802E-04  7971   0.170E-02    0.524E-02
RMM:   5    -0.115211274061E+04    0.45393E-05   -0.53816E-05  7059   0.109E-02    0.437E-02
RMM:   6    -0.115211274331E+04   -0.26921E-05   -0.23755E-05  6856   0.717E-03    0.127E-02
RMM:   7    -0.115211274450E+04   -0.11971E-05   -0.11374E-05  6529   0.515E-03    0.130E-02
RMM:   8    -0.115211274511E+04   -0.60388E-06   -0.68194E-06  5826   0.398E-03
  28 F= -.11521127E+04 E0= -.11521127E+04  d E =-.442474E-03  mag=    20.0000
       N       E                     dE             d eps       ncg     rms          rms(c)
DAV:   1    -0.115211269770E+04    0.46806E-04   -0.27217E-02 12736   0.190E-01    0.368E-02
RMM:   2    -0.115211276303E+04   -0.65332E-04   -0.70663E-04 10762   0.328E-02    0.254E-02
RMM:   3    -0.115211276279E+04    0.24258E-06   -0.30875E-05  6817   0.102E-02    0.164E-02
RMM:   4    -0.115211276215E+04    0.63634E-06   -0.10791E-05  6484   0.439E-03    0.102E-02
RMM:   5    -0.115211276194E+04    0.21432E-06   -0.45243E-06  5228   0.335E-03    0.115E-02
RMM:   6    -0.115211276216E+04   -0.22084E-06   -0.21563E-06  3815   0.259E-03    0.226E-03
RMM:   7    -0.115211276226E+04   -0.10089E-06   -0.86735E-07  2717   0.222E-03    0.113E-03
RMM:   8    -0.115211276230E+04   -0.46697E-07   -0.43020E-07  2260   0.203E-03
  29 F= -.11521128E+04 E0= -.11521128E+04  d E =-.459671E-03  mag=    20.0000
       N       E                     dE             d eps       ncg     rms          rms(c)
DAV:   1    -0.115211196684E+04    0.79541E-03   -0.56806E-01 12816   0.866E-01    0.170E-01
RMM:   2    -0.115211327331E+04   -0.13065E-02   -0.14276E-02 12322   0.146E-01    0.113E-01
RMM:   3    -0.115211326160E+04    0.11710E-04   -0.63427E-04 10546   0.468E-02    0.713E-02
RMM:   4    -0.115211322335E+04    0.38251E-04   -0.15637E-04  7419   0.150E-02    0.483E-02
RMM:   5    -0.115211321970E+04    0.36546E-05   -0.43038E-05  7034   0.946E-03    0.322E-02
RMM:   6    -0.115211322148E+04   -0.17794E-05   -0.19177E-05  6896   0.646E-03    0.107E-02
RMM:   7    -0.115211322203E+04   -0.55577E-06   -0.94874E-06  6439   0.453E-03    0.107E-02
RMM:   8    -0.115211322222E+04   -0.18590E-06   -0.52256E-06  5115   0.365E-03
  30 F= -.11521132E+04 E0= -.11521132E+04  d E =-.459913E-03  mag=    20.0000
