       N       E                     dE             d eps       ncg     rms          rms(c)
DAV:   1    -0.115345500651E+04   -0.11535E+04   -0.34242E-02 12704   0.421E-01    0.190E-02
RMM:   2    -0.115345500646E+04    0.53507E-07   -0.10471E-05  6575   0.582E-03    0.309E-02
RMM:   3    -0.115345500661E+04   -0.15015E-06   -0.32202E-06  5301   0.366E-03    0.311E-03
RMM:   4    -0.115345500666E+04   -0.56956E-07   -0.66263E-07  2609   0.192E-03    0.225E-03
RMM:   5    -0.115345500672E+04   -0.53929E-07   -0.37110E-07  2169   0.180E-03    0.254E-03
RMM:   6    -0.115345500670E+04    0.19194E-07   -0.78763E-08  1505   0.162E-03    0.113E-03
RMM:   7    -0.115345500669E+04    0.30414E-08   -0.62978E-08  1340   0.163E-03    0.429E-04
RMM:   8    -0.115345500670E+04   -0.50932E-09   -0.12413E-08  1136   0.159E-03
   1 F= -.11534550E+04 E0= -.11534550E+04  d E =-.115346E+04  mag=    20.0000
       N       E                     dE             d eps       ncg     rms          rms(c)
DAV:   1    -0.115345510945E+04   -0.10275E-03   -0.12860E-01 12672   0.413E-01    0.183E-01
RMM:   2    -0.115345526772E+04   -0.15827E-03   -0.43155E-03 12295   0.855E-02    0.137E-01
RMM:   3    -0.115345521191E+04    0.55818E-04   -0.18895E-04  8257   0.270E-02    0.779E-02
RMM:   4    -0.115345515615E+04    0.55753E-04   -0.16062E-04  7356   0.160E-02    0.575E-02
RMM:   5    -0.115345514600E+04    0.10149E-04   -0.44892E-05  7043   0.107E-02    0.493E-02
RMM:   6    -0.115345514264E+04    0.33653E-05   -0.21726E-05  6767   0.583E-03    0.157E-02
RMM:   7    -0.115345514155E+04    0.10927E-05   -0.82840E-06  5989   0.454E-03    0.148E-02
RMM:   8    -0.115345514045E+04    0.10938E-05   -0.61775E-06  5562   0.335E-03
   2 F= -.11534551E+04 E0= -.11534551E+04  d E =-.133756E-03  mag=    20.0000
       N       E                     dE             d eps       ncg     rms          rms(c)
DAV:   1    -0.115345530191E+04   -0.16037E-03   -0.20699E-02 12704   0.166E-01    0.729E-02
RMM:   2    -0.115345532801E+04   -0.26096E-04   -0.68204E-04 11235   0.338E-02    0.545E-02
RMM:   3    -0.115345531854E+04    0.94681E-05   -0.30717E-05  6519   0.106E-02    0.311E-02
RMM:   4    -0.115345530970E+04    0.88338E-05   -0.24954E-05  6360   0.641E-03    0.257E-02
RMM:   5    -0.115345530879E+04    0.91434E-06   -0.56332E-06  5469   0.412E-03    0.146E-02
RMM:   6    -0.115345530890E+04   -0.10536E-06   -0.16213E-06  3347   0.229E-03    0.568E-03
RMM:   7    -0.115345530924E+04   -0.34079E-06   -0.57498E-07  2728   0.222E-03    0.388E-03
RMM:   8    -0.115345530965E+04   -0.41517E-06   -0.85001E-07  2469   0.199E-03
   3 F= -.11534553E+04 E0= -.11534553E+04  d E =-.302956E-03  mag=    20.0000
       N       E                     dE             d eps       ncg     rms          rms(c)
DAV:   1    -0.115345531031E+04   -0.10751E-05   -0.37705E-04 10528   0.224E-02    0.105E-02
RMM:   2    -0.115345531130E+04   -0.99256E-06   -0.12427E-05  6132   0.504E-03    0.932E-03
RMM:   3    -0.115345531136E+04   -0.59808E-07   -0.79905E-07  3680   0.233E-03    0.476E-03
RMM:   4    -0.115345531135E+04    0.11933E-07   -0.37514E-08  1558   0.177E-03    0.310E-03
RMM:   5    -0.115345531145E+04   -0.93831E-07   -0.26717E-07  1610   0.191E-03    0.772E-04
RMM:   6    -0.115345531150E+04   -0.49869E-07   -0.16752E-07  1345   0.178E-03    0.661E-04
RMM:   7    -0.115345531151E+04   -0.16691E-07   -0.19840E-08   868   0.170E-03    0.449E-04
RMM:   8    -0.115345531153E+04   -0.20664E-07   -0.10811E-08   764   0.169E-03
   4 F= -.11534553E+04 E0= -.11534553E+04  d E =-.304838E-03  mag=    20.0000
       N       E                     dE             d eps       ncg     rms          rms(c)
DAV:   1    -0.115345525763E+04    0.53887E-04   -0.93588E-02 12416   0.355E-01    0.116E-01
RMM:   2    -0.115345553571E+04   -0.27808E-03   -0.23851E-03 12259   0.641E-02    0.754E-02
RMM:   3    -0.115345554862E+04   -0.12913E-04   -0.94795E-05  7058   0.207E-02    0.402E-02
RMM:   4    -0.115345553897E+04    0.96468E-05   -0.41778E-05  6911   0.845E-03    0.248E-02
RMM:   5    -0.115345553813E+04    0.84775E-06   -0.13065E-05  6333   0.571E-03    0.264E-02
RMM:   6    -0.115345553847E+04   -0.34478E-06   -0.65413E-06  5778   0.352E-03    0.656E-03
RMM:   7    -0.115345553870E+04   -0.23030E-06   -0.20869E-06  4109   0.280E-03    0.577E-03
RMM:   8    -0.115345553879E+04   -0.93991E-07   -0.96321E-07  2742   0.206E-03
   5 F= -.11534555E+04 E0= -.11534555E+04  d E =-.227261E-03  mag=    20.0000
