<?xml version="1.0" encoding="ISO-8859-1"?>
<modeling>
 <generator>
  <i name="program" type="string">vasp </i>
  <i name="version" type="string">5.4.1  </i>
  <i name="subversion" type="string">05Feb16 (build Jan 25 2017 20:16:33) complex                          parallel </i>
  <i name="platform" type="string">BWXE6 </i>
  <i name="date" type="string">2019 07 12 </i>
  <i name="time" type="string">12:20:07 </i>
 </generator>
 <incar>
  <i type="string" name="SYSTEM"> STF</i>
  <i type="string" name="PREC">normal</i>
  <i type="string" name="ALGO"> Fast</i>
  <i type="int" name="ISPIN">     2</i>
  <i type="int" name="NELM">    40</i>
  <i type="int" name="NELMIN">     8</i>
  <i type="int" name="IBRION">     2</i>
  <i name="EDIFF">      0.00010000</i>
  <i name="EDIFFG">     -0.03000000</i>
  <i type="int" name="NSW">    30</i>
  <i type="int" name="ISIF">     3</i>
  <i name="ENCUT">    520.00000000</i>
  <i type="int" name="NBANDS">   768</i>
  <v name="MAGMOM">      0.60000000      0.60000000      0.60000000      0.60000000      0.60000000      0.60000000      0.60000000      0.60000000      0.60000000      0.60000000      0.60000000      0.60000000      0.60000000      0.60000000      0.60000000      0.60000000      0.60000000      0.60000000      0.60000000      0.60000000
      0.60000000      0.60000000      0.60000000      0.60000000      0.60000000      0.60000000      0.60000000      0.60000000      0.60000000      0.60000000      0.60000000      0.60000000      0.60000000      0.60000000      0.60000000      0.60000000      0.60000000      0.60000000      0.60000000      0.60000000
      0.60000000      0.60000000      0.60000000      0.60000000      0.60000000      0.60000000      0.60000000      0.60000000      0.60000000      0.60000000      0.60000000      0.60000000      0.60000000      0.60000000      0.60000000      0.60000000      0.60000000      0.60000000      0.60000000      0.60000000
      5.00000000      5.00000000      5.00000000      5.00000000      0.60000000      0.60000000      0.60000000      0.60000000      0.60000000      0.60000000      0.60000000      0.60000000      0.60000000      0.60000000      0.60000000      0.60000000      0.60000000      0.60000000      0.60000000      0.60000000
      0.60000000      0.60000000      0.60000000      0.60000000      0.60000000      0.60000000      0.60000000      0.60000000      0.60000000      0.60000000      0.60000000      0.60000000      0.60000000      0.60000000      0.60000000      0.60000000      0.60000000      0.60000000      0.60000000      0.60000000
      0.60000000      0.60000000      0.60000000      0.60000000      0.60000000      0.60000000      0.60000000      0.60000000      0.60000000      0.60000000      0.60000000      0.60000000      0.60000000      0.60000000      0.60000000      0.60000000      0.60000000      0.60000000      0.60000000      0.60000000
      0.60000000      0.60000000      0.60000000      0.60000000      0.60000000      0.60000000      0.60000000      0.60000000      0.60000000      0.60000000      0.60000000      0.60000000      0.60000000      0.60000000      0.60000000      0.60000000      0.60000000      0.60000000      0.60000000      0.60000000
      0.60000000      0.60000000      0.60000000      0.60000000      0.60000000      0.60000000      0.60000000      0.60000000      0.60000000      0.60000000      0.60000000      0.60000000      0.60000000      0.60000000      0.60000000      0.60000000      0.60000000      0.60000000</v>
  <i type="string" name="LREAL"> Auto</i>
  <i type="int" name="ISMEAR">     0</i>
  <i name="SIGMA">      0.05000000</i>
  <i type="int" name="LMAXMIX">     4</i>
  <v type="int" name="KPOINT_BSE">    -1     0     0     0</v>
  <i type="int" name="NELM">    40</i>
  <i type="logical" name="LDAU"> T  </i>
  <v type="int" name="LDAUTYPE">     2</v>
  <v type="int" name="LDAUL">     0     2     2     0</v>
  <v name="LDAUU">      0.00000000      3.00000000      5.00000000      0.00000000</v>
  <v name="LDAUJ">      0.00000000      0.00000000      0.00000000      0.00000000</v>
  <i type="int" name="LDAUPRINT">     1</i>
 </incar>
 <kpoints>
  <generation param="Monkhorst-Pack">
   <v type="int" name="divisions">       2        2        2 </v>
   <v name="usershift">      0.00000000       0.00000000       0.00000000 </v>
   <v name="genvec1">      0.50000000       0.00000000       0.00000000 </v>
   <v name="genvec2">      0.00000000       0.50000000      -0.00000000 </v>
   <v name="genvec3">     -0.00000000       0.00000000       0.50000000 </v>
   <v name="shift">      0.50000000       0.50000000       0.50000000 </v>
  </generation>
  <varray name="kpointlist" >
   <v>       0.25000000       0.25000000       0.25000000 </v>
   <v>      -0.25000000       0.25000000       0.25000000 </v>
   <v>       0.25000000      -0.25000000       0.25000000 </v>
   <v>      -0.25000000      -0.25000000       0.25000000 </v>
  </varray>
  <varray name="weights" >
   <v>       0.25000000 </v>
   <v>       0.25000000 </v>
   <v>       0.25000000 </v>
   <v>       0.25000000 </v>
  </varray>
 </kpoints>
 <parameters>
  <separator name="general" >
   <i type="string" name="SYSTEM">STF</i>
   <i type="logical" name="LCOMPAT"> F  </i>
  </separator>
  <separator name="electronic" >
   <i type="string" name="PREC">normal</i>
   <i name="ENMAX">    520.00000000</i>
   <i name="ENAUG">    605.39200000</i>
   <i name="EDIFF">      0.00010000</i>
   <i type="int" name="IALGO">    68</i>
   <i type="int" name="IWAVPR">    11</i>
   <i type="int" name="NBANDS">   768</i>
   <i name="NELECT">   1028.00000000</i>
   <i type="int" name="TURBO">     0</i>
   <i type="int" name="IRESTART">     0</i>
   <i type="int" name="NREBOOT">     0</i>
   <i type="int" name="NMIN">     0</i>
   <i name="EREF">      0.00000000</i>
   <separator name="electronic smearing" >
    <i type="int" name="ISMEAR">     0</i>
    <i name="SIGMA">      0.05000000</i>
    <i name="KSPACING">      0.50000000</i>
    <i type="logical" name="KGAMMA"> T  </i>
   </separator>
   <separator name="electronic projectors" >
    <i type="logical" name="LREAL"> T  </i>
    <v name="ROPT">     -0.00050000     -0.00050000     -0.00050000     -0.00050000</v>
    <i type="int" name="LMAXPAW">  -100</i>
    <i type="int" name="LMAXMIX">     4</i>
    <i type="logical" name="NLSPLINE"> F  </i>
   </separator>
   <separator name="electronic startup" >
    <i type="int" name="ISTART">     1</i>
    <i type="int" name="ICHARG">     0</i>
    <i type="int" name="INIWAV">     1</i>
   </separator>
   <separator name="electronic spin" >
    <i type="int" name="ISPIN">     2</i>
    <i type="logical" name="LNONCOLLINEAR"> F  </i>
    <v name="MAGMOM">      0.60000000      0.60000000      0.60000000      0.60000000      0.60000000      0.60000000      0.60000000      0.60000000      0.60000000      0.60000000      0.60000000      0.60000000      0.60000000      0.60000000      0.60000000      0.60000000      0.60000000      0.60000000      0.60000000      0.60000000
      0.60000000      0.60000000      0.60000000      0.60000000      0.60000000      0.60000000      0.60000000      0.60000000      0.60000000      0.60000000      0.60000000      0.60000000      0.60000000      0.60000000      0.60000000      0.60000000      0.60000000      0.60000000      0.60000000      0.60000000
      0.60000000      0.60000000      0.60000000      0.60000000      0.60000000      0.60000000      0.60000000      0.60000000      0.60000000      0.60000000      0.60000000      0.60000000      0.60000000      0.60000000      0.60000000      0.60000000      0.60000000      0.60000000      0.60000000      0.60000000
      5.00000000      5.00000000      5.00000000      5.00000000      0.60000000      0.60000000      0.60000000      0.60000000      0.60000000      0.60000000      0.60000000      0.60000000      0.60000000      0.60000000      0.60000000      0.60000000      0.60000000      0.60000000      0.60000000      0.60000000
      0.60000000      0.60000000      0.60000000      0.60000000      0.60000000      0.60000000      0.60000000      0.60000000      0.60000000      0.60000000      0.60000000      0.60000000      0.60000000      0.60000000      0.60000000      0.60000000      0.60000000      0.60000000      0.60000000      0.60000000
      0.60000000      0.60000000      0.60000000      0.60000000      0.60000000      0.60000000      0.60000000      0.60000000      0.60000000      0.60000000      0.60000000      0.60000000      0.60000000      0.60000000      0.60000000      0.60000000      0.60000000      0.60000000      0.60000000      0.60000000
      0.60000000      0.60000000      0.60000000      0.60000000      0.60000000      0.60000000      0.60000000      0.60000000      0.60000000      0.60000000      0.60000000      0.60000000      0.60000000      0.60000000      0.60000000      0.60000000      0.60000000      0.60000000      0.60000000      0.60000000
      0.60000000      0.60000000      0.60000000      0.60000000      0.60000000      0.60000000      0.60000000      0.60000000      0.60000000      0.60000000      0.60000000      0.60000000      0.60000000      0.60000000      0.60000000      0.60000000      0.60000000      0.60000000</v>
    <i name="NUPDOWN">     -1.00000000</i>
    <i type="logical" name="LSORBIT"> F  </i>
    <v name="SAXIS">      0.00000000      0.00000000      1.00000000</v>
    <i type="logical" name="LSPIRAL"> F  </i>
    <v name="QSPIRAL">      0.00000000      0.00000000      0.00000000</v>
    <i type="logical" name="LZEROZ"> F  </i>
   </separator>
   <separator name="electronic exchange-correlation" >
    <i type="logical" name="LASPH"> F  </i>
    <i type="logical" name="LMETAGGA"> F  </i>
   </separator>
   <separator name="electronic convergence" >
    <i type="int" name="NELM">    40</i>
    <i type="int" name="NELMDL">     0</i>
    <i type="int" name="NELMIN">     8</i>
    <i name="ENINI">    520.00000000</i>
    <separator name="electronic convergence detail" >
     <i type="logical" name="LDIAG"> T  </i>
     <i type="logical" name="LSUBROT"> F  </i>
     <i name="WEIMIN">      0.00100000</i>
     <i name="EBREAK">      0.00000003</i>
     <i name="DEPER">      0.30000000</i>
     <i type="int" name="NRMM">     4</i>
     <i name="TIME">      0.40000000</i>
    </separator>
   </separator>
   <separator name="electronic mixer" >
    <i name="AMIX">      0.40000000</i>
    <i name="BMIX">      1.00000000</i>
    <i name="AMIN">      0.10000000</i>
    <i name="AMIX_MAG">      1.60000000</i>
    <i name="BMIX_MAG">      1.00000000</i>
    <separator name="electronic mixer details" >
     <i type="int" name="IMIX">     4</i>
     <i type="logical" name="MIXFIRST"> F  </i>
     <i type="int" name="MAXMIX">   -45</i>
     <i name="WC">    100.00000000</i>
     <i type="int" name="INIMIX">     1</i>
     <i type="int" name="MIXPRE">     1</i>
     <i type="int" name="MREMOVE">     5</i>
    </separator>
   </separator>
   <separator name="electronic dipolcorrection" >
    <i type="logical" name="LDIPOL"> F  </i>
    <i type="logical" name="LMONO"> F  </i>
    <i type="int" name="IDIPOL">     0</i>
    <i name="EPSILON">      1.00000000</i>
    <v name="DIPOL">   -100.00000000   -100.00000000   -100.00000000</v>
    <i name="EFIELD">      0.00000000</i>
   </separator>
  </separator>
  <separator name="grids" >
   <i type="int" name="NGX">    64</i>
   <i type="int" name="NGY">    64</i>
   <i type="int" name="NGZ">    90</i>
   <i type="int" name="NGXF">   128</i>
   <i type="int" name="NGYF">   128</i>
   <i type="int" name="NGZF">   180</i>
   <i type="logical" name="ADDGRID"> F  </i>
  </separator>
  <separator name="ionic" >
   <i type="int" name="NSW">    30</i>
   <i type="int" name="IBRION">     2</i>
   <i type="int" name="ISIF">     3</i>
   <i name="PSTRESS">      0.00000000</i>
   <i name="EDIFFG">     -0.03000000</i>
   <i type="int" name="NFREE">     1</i>
   <i name="POTIM">      0.50000000</i>
   <i name="SMASS">     -3.00000000</i>
   <i name="SCALEE">      1.00000000</i>
  </separator>
  <separator name="ionic md" >
   <i name="TEBEG">      0.00010000</i>
   <i name="TEEND">      0.00010000</i>
   <i type="int" name="NBLOCK">     1</i>
   <i type="int" name="KBLOCK">    30</i>
   <i type="int" name="NPACO">   256</i>
   <i name="APACO">     16.00000000</i>
  </separator>
  <separator name="symmetry" >
   <i type="int" name="ISYM">     2</i>
   <i name="SYMPREC">      0.00001000</i>
  </separator>
  <separator name="dos" >
   <i type="logical" name="LORBIT"> F  </i>
   <v name="RWIGS">     -1.00000000     -1.00000000     -1.00000000     -1.00000000</v>
   <i type="int" name="NEDOS">   301</i>
   <i name="EMIN">     10.00000000</i>
   <i name="EMAX">    -10.00000000</i>
   <i name="EFERMI">      0.00000000</i>
  </separator>
  <separator name="writing" >
   <i type="int" name="NWRITE">     2</i>
   <i type="logical" name="LWAVE"> T  </i>
   <i type="logical" name="LCHARG"> T  </i>
   <i type="logical" name="LPARD"> F  </i>
   <i type="logical" name="LVTOT"> F  </i>
   <i type="logical" name="LVHAR"> F  </i>
   <i type="logical" name="LELF"> F  </i>
   <i type="logical" name="LOPTICS"> F  </i>
   <v name="STM">      0.00000000      0.00000000      0.00000000      0.00000000      0.00000000      0.00000000      0.00000000</v>
  </separator>
  <separator name="performance" >
   <i type="int" name="NPAR">     2</i>
   <i type="int" name="NSIM">     4</i>
   <i type="int" name="NBLK">    -1</i>
   <i type="logical" name="LPLANE"> T  </i>
   <i type="logical" name="LSCALAPACK"> T  </i>
   <i type="logical" name="LSCAAWARE"> F  </i>
   <i type="logical" name="LSCALU"> F  </i>
   <i type="logical" name="LASYNC"> F  </i>
   <i type="logical" name="LORBITALREAL"> F  </i>
  </separator>
  <separator name="miscellaneous" >
   <i type="int" name="IDIOT">     3</i>
   <i type="logical" name="LMUSIC"> F  </i>
   <v name="POMASS">     87.62000000     47.88000000     55.84700000     16.00000000</v>
   <v name="DARWINR">      0.00000000      0.00000000      0.00000000      0.00000000</v>
   <v name="DARWINV">      1.00000000      1.00000000      1.00000000      1.00000000</v>
   <i type="logical" name="LCORR"> T  </i>
  </separator>
  <i type="logical" name="GGA_COMPAT"> T  </i>
  <i type="logical" name="LBERRY"> F  </i>
  <i type="int" name="ICORELEVEL">     0</i>
  <i type="logical" name="LDAU"> T  </i>
  <v type="int" name="LDAUTYPE">     2</v>
  <v type="int" name="LDAUL">     0</v>
  <v name="LDAUU">      0.00000000</v>
  <v name="LDAUJ">      0.00000000</v>
  <i type="int" name="LDAUPRINT">     1</i>
  <i type="int" name="I_CONSTRAINED_M">     0</i>
  <separator name="electronic exchange-correlation" >
   <i type="string" name="GGA">--</i>
   <i type="int" name="VOSKOWN">     0</i>
   <i type="logical" name="LHFCALC"> F  </i>
   <i type="string" name="PRECFOCK"></i>
   <i type="logical" name="LSYMGRAD"> F  </i>
   <i type="logical" name="LHFONE"> F  </i>
   <i type="logical" name="LRHFCALC"> F  </i>
   <i type="logical" name="LTHOMAS"> F  </i>
   <i type="logical" name="LMODELHF"> F  </i>
   <i name="ENCUT4O">     -1.00000000</i>
   <i type="int" name="EXXOEP">     0</i>
   <i type="int" name="FOURORBIT">     0</i>
   <i name="AEXX">      0.00000000</i>
   <i name="HFALPHA">      0.00000000</i>
   <i name="MCALPHA">      0.00000000</i>
   <i name="ALDAX">      1.00000000</i>
   <i name="AGGAX">      1.00000000</i>
   <i name="ALDAC">      1.00000000</i>
   <i name="AGGAC">      1.00000000</i>
   <i type="int" name="NKREDX">     1</i>
   <i type="int" name="NKREDY">     1</i>
   <i type="int" name="NKREDZ">     1</i>
   <i type="logical" name="SHIFTRED"> F  </i>
   <i type="logical" name="ODDONLY"> F  </i>
   <i type="logical" name="EVENONLY"> F  </i>
   <i type="int" name="LMAXFOCK">     0</i>
   <i type="int" name="NMAXFOCKAE">     0</i>
   <i type="logical" name="LFOCKAEDFT"> F  </i>
   <i name="HFSCREEN">      0.00000000</i>
   <i name="HFSCREENC">      0.00000000</i>
   <i type="int" name="NBANDSGWLOW">     0</i>
  </separator>
  <separator name="vdW DFT" >
   <i type="logical" name="LUSE_VDW"> F  </i>
   <i name="Zab_VDW">     -0.84910000</i>
   <i name="PARAM1">      0.12340000</i>
   <i name="PARAM2">      1.00000000</i>
   <i name="PARAM3">      0.00000000</i>
  </separator>
  <separator name="model GW" >
   <i type="int" name="MODEL_GW">     0</i>
   <i name="MODEL_EPS0">      7.60929125</i>
   <i name="MODEL_ALPHA">      1.00000000</i>
  </separator>
  <separator name="linear response parameters" >
   <i type="logical" name="LEPSILON"> F  </i>
   <i type="logical" name="LRPA"> F  </i>
   <i type="logical" name="LNABLA"> F  </i>
   <i type="logical" name="LVEL"> F  </i>
   <i type="int" name="KINTER">     0</i>
   <i name="CSHIFT">      0.10000000</i>
   <i name="OMEGAMAX">     -1.00000000</i>
   <i name="DEG_THRESHOLD">      0.00200000</i>
  </separator>
  <separator name="orbital magnetization" >
   <i type="logical" name="NUCIND"> F  </i>
   <v name="MAGPOS">      0.00000000      0.00000000      0.00000000</v>
   <i type="logical" name="LNICSALL"> T  </i>
   <i type="logical" name="ORBITALMAG"> F  </i>
   <i type="logical" name="LMAGBLOCH"> F  </i>
   <i type="logical" name="LCHIMAG"> F  </i>
   <i type="logical" name="LGAUGE"> T  </i>
   <i type="int" name="MAGATOM">     0</i>
   <v name="MAGDIPOL">      0.00000000      0.00000000      0.00000000</v>
   <v name="AVECCONST">      0.00000000      0.00000000      0.00000000</v>
  </separator>
  <separator name="response functions" >
   <i type="logical" name="LADDER"> F  </i>
   <i type="logical" name="LFXC"> F  </i>
   <i type="logical" name="LHARTREE"> T  </i>
   <i type="int" name="IBSE">     0</i>
   <v type="int" name="KPOINT">    -1     0     0     0</v>
   <i type="logical" name="LTCTE"> F  </i>
   <i type="logical" name="LTETE"> F  </i>
   <i type="logical" name="LTRIPLET"> F  </i>
   <i type="logical" name="LFXCEPS"> F  </i>
   <i type="logical" name="LFXHEG"> F  </i>
   <i type="int" name="NATURALO">     0</i>
   <i type="logical" name="L2ORDER"> F  </i>
   <i type="logical" name="LUSEW"> F  </i>
   <i name="ENCUTGW">     -2.00000000</i>
   <i name="ENCUTGWSOFT">     -2.00000000</i>
   <i name="ENCUTLF">     -1.00000000</i>
   <i type="int" name="LMAXMP2">    -1</i>
   <i name="SCISSOR">      0.00000000</i>
   <i type="int" name="NOMEGA">     0</i>
   <i type="int" name="NOMEGAR">     0</i>
   <i type="int" name="NBANDSGW">    -1</i>
   <i type="int" name="NBANDSO">    -1</i>
   <i type="int" name="NBANDSV">    -1</i>
   <i type="int" name="NELM">    40</i>
   <i type="int" name="NELMHF">     1</i>
   <i type="int" name="DIM">     3</i>
   <i type="int" name="ANTIRES">     0</i>
   <i name="OMEGAMAX">    -30.00000000</i>
   <i name="OMEGAMIN">    -30.00000000</i>
   <i name="OMEGATL">   -200.00000000</i>
   <i type="int" name="OMEGAGRID">     0</i>
   <i name="CSHIFT">     -0.10000000</i>
   <i type="logical" name="SELFENERGY"> F  </i>
   <i type="logical" name="LSPECTRAL"> F  </i>
   <i type="logical" name="LSPECTRALGW"> F  </i>
   <i type="logical" name="LSINGLES"> F  </i>
   <i type="logical" name="LFERMIGW"> F  </i>
   <i type="logical" name="ODDONLYGW"> F  </i>
   <i type="logical" name="EVENONLYGW"> F  </i>
   <i type="int" name="NKREDLFX">     1</i>
   <i type="int" name="NKREDLFY">     1</i>
   <i type="int" name="NKREDLFZ">     1</i>
   <i type="int" name="MAXMEM">  1800</i>
   <i type="int" name="TELESCOPE">     0</i>
   <i type="int" name="TAUPAR">     1</i>
   <i type="int" name="OMEGAPAR">    -1</i>
   <i name="LAMBDA">      1.00000000</i>
  </separator>
  <separator name="External order field" >
   <i name="OFIELD_KAPPA">      0.00000000</i>
   <v name="OFIELD_K">      0.00000000      0.00000000      0.00000000</v>
   <i name="OFIELD_Q6_NEAR">      0.00000000</i>
   <i name="OFIELD_Q6_FAR">      0.00000000</i>
   <i name="OFIELD_A">      0.00000000</i>
  </separator>
 </parameters>
 <atominfo>
  <atoms>     158 </atoms>
  <types>       4 </types>
  <array name="atoms" >
   <dimension dim="1">ion</dimension>
   <field type="string">element</field>
   <field type="int">atomtype</field>
   <set>
    <rc><c>Sr</c><c>   1</c></rc>
    <rc><c>Sr</c><c>   1</c></rc>
    <rc><c>Sr</c><c>   1</c></rc>
    <rc><c>Sr</c><c>   1</c></rc>
    <rc><c>Sr</c><c>   1</c></rc>
    <rc><c>Sr</c><c>   1</c></rc>
    <rc><c>Sr</c><c>   1</c></rc>
    <rc><c>Sr</c><c>   1</c></rc>
    <rc><c>Sr</c><c>   1</c></rc>
    <rc><c>Sr</c><c>   1</c></rc>
    <rc><c>Sr</c><c>   1</c></rc>
    <rc><c>Sr</c><c>   1</c></rc>
    <rc><c>Sr</c><c>   1</c></rc>
    <rc><c>Sr</c><c>   1</c></rc>
    <rc><c>Sr</c><c>   1</c></rc>
    <rc><c>Sr</c><c>   1</c></rc>
    <rc><c>Sr</c><c>   1</c></rc>
    <rc><c>Sr</c><c>   1</c></rc>
    <rc><c>Sr</c><c>   1</c></rc>
    <rc><c>Sr</c><c>   1</c></rc>
    <rc><c>Sr</c><c>   1</c></rc>
    <rc><c>Sr</c><c>   1</c></rc>
    <rc><c>Sr</c><c>   1</c></rc>
    <rc><c>Sr</c><c>   1</c></rc>
    <rc><c>Sr</c><c>   1</c></rc>
    <rc><c>Sr</c><c>   1</c></rc>
    <rc><c>Sr</c><c>   1</c></rc>
    <rc><c>Sr</c><c>   1</c></rc>
    <rc><c>Sr</c><c>   1</c></rc>
    <rc><c>Sr</c><c>   1</c></rc>
    <rc><c>Sr</c><c>   1</c></rc>
    <rc><c>Sr</c><c>   1</c></rc>
    <rc><c>Ti</c><c>   2</c></rc>
    <rc><c>Ti</c><c>   2</c></rc>
    <rc><c>Ti</c><c>   2</c></rc>
    <rc><c>Ti</c><c>   2</c></rc>
    <rc><c>Ti</c><c>   2</c></rc>
    <rc><c>Ti</c><c>   2</c></rc>
    <rc><c>Ti</c><c>   2</c></rc>
    <rc><c>Ti</c><c>   2</c></rc>
    <rc><c>Ti</c><c>   2</c></rc>
    <rc><c>Ti</c><c>   2</c></rc>
    <rc><c>Ti</c><c>   2</c></rc>
    <rc><c>Ti</c><c>   2</c></rc>
    <rc><c>Ti</c><c>   2</c></rc>
    <rc><c>Ti</c><c>   2</c></rc>
    <rc><c>Ti</c><c>   2</c></rc>
    <rc><c>Ti</c><c>   2</c></rc>
    <rc><c>Ti</c><c>   2</c></rc>
    <rc><c>Ti</c><c>   2</c></rc>
    <rc><c>Ti</c><c>   2</c></rc>
    <rc><c>Ti</c><c>   2</c></rc>
    <rc><c>Ti</c><c>   2</c></rc>
    <rc><c>Ti</c><c>   2</c></rc>
    <rc><c>Ti</c><c>   2</c></rc>
    <rc><c>Ti</c><c>   2</c></rc>
    <rc><c>Ti</c><c>   2</c></rc>
    <rc><c>Ti</c><c>   2</c></rc>
    <rc><c>Ti</c><c>   2</c></rc>
    <rc><c>Ti</c><c>   2</c></rc>
    <rc><c>Fe</c><c>   3</c></rc>
    <rc><c>Fe</c><c>   3</c></rc>
    <rc><c>Fe</c><c>   3</c></rc>
    <rc><c>Fe</c><c>   3</c></rc>
    <rc><c>O </c><c>   4</c></rc>
    <rc><c>O </c><c>   4</c></rc>
    <rc><c>O </c><c>   4</c></rc>
    <rc><c>O </c><c>   4</c></rc>
    <rc><c>O </c><c>   4</c></rc>
    <rc><c>O </c><c>   4</c></rc>
    <rc><c>O </c><c>   4</c></rc>
    <rc><c>O </c><c>   4</c></rc>
    <rc><c>O </c><c>   4</c></rc>
    <rc><c>O </c><c>   4</c></rc>
    <rc><c>O </c><c>   4</c></rc>
    <rc><c>O </c><c>   4</c></rc>
    <rc><c>O </c><c>   4</c></rc>
    <rc><c>O </c><c>   4</c></rc>
    <rc><c>O </c><c>   4</c></rc>
    <rc><c>O </c><c>   4</c></rc>
    <rc><c>O </c><c>   4</c></rc>
    <rc><c>O </c><c>   4</c></rc>
    <rc><c>O </c><c>   4</c></rc>
    <rc><c>O </c><c>   4</c></rc>
    <rc><c>O </c><c>   4</c></rc>
    <rc><c>O </c><c>   4</c></rc>
    <rc><c>O </c><c>   4</c></rc>
    <rc><c>O </c><c>   4</c></rc>
    <rc><c>O </c><c>   4</c></rc>
    <rc><c>O </c><c>   4</c></rc>
    <rc><c>O </c><c>   4</c></rc>
    <rc><c>O </c><c>   4</c></rc>
    <rc><c>O </c><c>   4</c></rc>
    <rc><c>O </c><c>   4</c></rc>
    <rc><c>O </c><c>   4</c></rc>
    <rc><c>O </c><c>   4</c></rc>
    <rc><c>O </c><c>   4</c></rc>
    <rc><c>O </c><c>   4</c></rc>
    <rc><c>O </c><c>   4</c></rc>
    <rc><c>O </c><c>   4</c></rc>
    <rc><c>O </c><c>   4</c></rc>
    <rc><c>O </c><c>   4</c></rc>
    <rc><c>O </c><c>   4</c></rc>
    <rc><c>O </c><c>   4</c></rc>
    <rc><c>O </c><c>   4</c></rc>
    <rc><c>O </c><c>   4</c></rc>
    <rc><c>O </c><c>   4</c></rc>
    <rc><c>O </c><c>   4</c></rc>
    <rc><c>O </c><c>   4</c></rc>
    <rc><c>O </c><c>   4</c></rc>
    <rc><c>O </c><c>   4</c></rc>
    <rc><c>O </c><c>   4</c></rc>
    <rc><c>O </c><c>   4</c></rc>
    <rc><c>O </c><c>   4</c></rc>
    <rc><c>O </c><c>   4</c></rc>
    <rc><c>O </c><c>   4</c></rc>
    <rc><c>O </c><c>   4</c></rc>
    <rc><c>O </c><c>   4</c></rc>
    <rc><c>O </c><c>   4</c></rc>
    <rc><c>O </c><c>   4</c></rc>
    <rc><c>O </c><c>   4</c></rc>
    <rc><c>O </c><c>   4</c></rc>
    <rc><c>O </c><c>   4</c></rc>
    <rc><c>O </c><c>   4</c></rc>
    <rc><c>O </c><c>   4</c></rc>
    <rc><c>O </c><c>   4</c></rc>
    <rc><c>O </c><c>   4</c></rc>
    <rc><c>O </c><c>   4</c></rc>
    <rc><c>O </c><c>   4</c></rc>
    <rc><c>O </c><c>   4</c></rc>
    <rc><c>O </c><c>   4</c></rc>
    <rc><c>O </c><c>   4</c></rc>
    <rc><c>O </c><c>   4</c></rc>
    <rc><c>O </c><c>   4</c></rc>
    <rc><c>O </c><c>   4</c></rc>
    <rc><c>O </c><c>   4</c></rc>
    <rc><c>O </c><c>   4</c></rc>
    <rc><c>O </c><c>   4</c></rc>
    <rc><c>O </c><c>   4</c></rc>
    <rc><c>O </c><c>   4</c></rc>
    <rc><c>O </c><c>   4</c></rc>
    <rc><c>O </c><c>   4</c></rc>
    <rc><c>O </c><c>   4</c></rc>
    <rc><c>O </c><c>   4</c></rc>
    <rc><c>O </c><c>   4</c></rc>
    <rc><c>O </c><c>   4</c></rc>
    <rc><c>O </c><c>   4</c></rc>
    <rc><c>O </c><c>   4</c></rc>
    <rc><c>O </c><c>   4</c></rc>
    <rc><c>O </c><c>   4</c></rc>
    <rc><c>O </c><c>   4</c></rc>
    <rc><c>O </c><c>   4</c></rc>
    <rc><c>O </c><c>   4</c></rc>
    <rc><c>O </c><c>   4</c></rc>
    <rc><c>O </c><c>   4</c></rc>
    <rc><c>O </c><c>   4</c></rc>
    <rc><c>O </c><c>   4</c></rc>
    <rc><c>O </c><c>   4</c></rc>
   </set>
  </array>
  <array name="atomtypes" >
   <dimension dim="1">type</dimension>
   <field type="int">atomspertype</field>
   <field type="string">element</field>
   <field>mass</field>
   <field>valence</field>
   <field type="string">pseudopotential</field>
   <set>
    <rc><c>  32</c><c>Sr</c><c>     87.62000000</c><c>     10.00000000</c><c>  PAW_PBE Sr_sv 07Sep2000               </c></rc>
    <rc><c>  28</c><c>Ti</c><c>     47.88000000</c><c>      4.00000000</c><c>  PAW_PBE Ti 08Apr2002                  </c></rc>
    <rc><c>   4</c><c>Fe</c><c>     55.84700000</c><c>      8.00000000</c><c>  PAW_PBE Fe 06Sep2000                  </c></rc>
    <rc><c>  94</c><c>O </c><c>     16.00000000</c><c>      6.00000000</c><c>  PAW_PBE O 08Apr2002                   </c></rc>
   </set>
  </array>
 </atominfo>
 <structure name="initialpos" >
  <crystal>
   <varray name="basis" >
    <v>      11.21550068       0.00248074       0.00036533 </v>
    <v>       0.00247414      11.21808107      -0.00004958 </v>
    <v>       0.00052223      -0.00007372      15.92622419 </v>
   </varray>
   <i name="volume">   2003.78002809 </i>
   <varray name="rec_basis" >
    <v>       0.08916232      -0.00001966      -0.00000292 </v>
    <v>      -0.00001972       0.08914181       0.00000041 </v>
    <v>      -0.00000205       0.00000028       0.06278952 </v>
   </varray>
  </crystal>
  <varray name="positions" >
   <v>       0.99760575       0.25289247       0.12504381 </v>
   <v>       0.99952536       0.25233234       0.62301806 </v>
   <v>       0.00047097       0.74906027       0.12427085 </v>
   <v>       0.00006168       0.74733659       0.62358421 </v>
   <v>       0.50188122       0.24121070       0.11821720 </v>
   <v>       0.49934722       0.24949648       0.62575327 </v>
   <v>       0.50203282       0.76004640       0.12430256 </v>
   <v>       0.49927108       0.74882356       0.62375496 </v>
   <v>       0.99752634       0.25502660       0.37668638 </v>
   <v>       0.99975035       0.25063926       0.87496021 </v>
   <v>       0.00061495       0.74758836       0.37716039 </v>
   <v>       0.99971642       0.74909795       0.87451856 </v>
   <v>       0.50220247       0.24110703       0.38266331 </v>
   <v>       0.49936724       0.24955014       0.87340864 </v>
   <v>       0.50206401       0.76032729       0.37646380 </v>
   <v>       0.49927575       0.74877718       0.87533315 </v>
   <v>       0.25171644       0.99983611       0.12539990 </v>
   <v>       0.24993745       0.00132752       0.62338593 </v>
   <v>       0.24554255       0.50027995       0.12256828 </v>
   <v>       0.24769062       0.49875639       0.62433331 </v>
   <v>       0.75108975       0.99843769       0.12299097 </v>
   <v>       0.74967305       0.00090725       0.62477666 </v>
   <v>       0.75677181       0.50017534       0.12311276 </v>
   <v>       0.75142960       0.49943475       0.62320041 </v>
   <v>       0.25185907       0.99979170       0.37528814 </v>
   <v>       0.24960547       0.00132141       0.87557243 </v>
   <v>       0.24326633       0.49988859       0.37872784 </v>
   <v>       0.24918810       0.49898954       0.87384052 </v>
   <v>       0.75096124       0.99859041       0.37760642 </v>
   <v>       0.74993983       0.00094012       0.87447406 </v>
   <v>       0.75956088       0.50074364       0.37889288 </v>
   <v>       0.74966401       0.49911504       0.87484004 </v>
   <v>       0.00028296       0.99988243       0.00040002 </v>
   <v>       0.00033544       0.99985315       0.49949978 </v>
   <v>       0.00017380       0.50004890       0.99932510 </v>
   <v>       0.24927319       0.74840022       0.49924262 </v>
   <v>       0.50004145       0.99960811       0.99877738 </v>
   <v>       0.50010229       0.99965451       0.50125506 </v>
   <v>       0.25004023       0.25066300       0.00192939 </v>
   <v>       0.24878540       0.25183563       0.49779246 </v>
   <v>       0.99978640       0.50001026       0.74839727 </v>
   <v>       0.75290816       0.75287042       0.25006622 </v>
   <v>       0.50023609       0.49766234       0.00118658 </v>
   <v>       0.75112003       0.25198403       0.49868933 </v>
   <v>       0.75010761       0.75002505       0.00011757 </v>
   <v>       0.75141896       0.74895441       0.49977822 </v>
   <v>       0.50036046       0.49757985       0.49799121 </v>
   <v>       0.75050585       0.24938244       0.74974061 </v>
   <v>       0.25079568       0.74969515       0.74974616 </v>
   <v>       0.50052752       0.00616621       0.25003043 </v>
   <v>       0.74985359       0.25057650       0.00109071 </v>
   <v>       0.00045681       0.49942577       0.25127440 </v>
   <v>       0.74968442       0.74926006       0.74979625 </v>
   <v>       0.99967305       0.99665061       0.25022882 </v>
   <v>       0.00020209       0.00064680       0.74969695 </v>
   <v>       0.50010995       0.99917062       0.74998011 </v>
   <v>       0.24766898       0.75225159       0.25003269 </v>
   <v>       0.25021381       0.74973691       0.00056511 </v>
   <v>       0.24928859       0.24970930       0.74968962 </v>
   <v>       0.49980624       0.50107752       0.74942513 </v>
   <v>       0.23504358       0.24036784       0.25004013 </v>
   <v>       0.00050569       0.50015928       0.50074090 </v>
   <v>       0.49578136       0.52591282       0.25043535 </v>
   <v>       0.75851745       0.23606632       0.25004929 </v>
   <v>       0.09994123       0.14151750       0.25015627 </v>
   <v>       0.10929936       0.14080819       0.75001296 </v>
   <v>       0.10607573       0.64460869       0.24944230 </v>
   <v>       0.11024819       0.64143675       0.75063366 </v>
   <v>       0.14073418       0.61292815       0.50042449 </v>
   <v>       0.60959500       0.13998358       0.75051639 </v>
   <v>       0.34957148       0.60524397       0.25028222 </v>
   <v>       0.60830577       0.64074554       0.75039761 </v>
   <v>       0.61076748       0.64533564       0.24960501 </v>
   <v>       0.39073063       0.36046758       0.75031770 </v>
   <v>       0.89008639       0.35929322       0.75073282 </v>
   <v>       0.39186818       0.85863508       0.75056386 </v>
   <v>       0.88096243       0.36518109       0.24915362 </v>
   <v>       0.24726370       0.75469782       0.37429080 </v>
   <v>       0.89452144       0.85571869       0.24999427 </v>
   <v>       0.89069280       0.85883991       0.74995871 </v>
   <v>       0.75135288       0.24800084       0.87527992 </v>
   <v>       0.35985538       0.10923562       0.75057088 </v>
   <v>       0.14063380       0.39025823       0.75076112 </v>
   <v>       0.35935612       0.60833688       0.75001330 </v>
   <v>       0.85667180       0.10058467       0.24971571 </v>
   <v>       0.85947580       0.10834554       0.75038335 </v>
   <v>       0.85709461       0.61056706       0.24937534 </v>
   <v>       0.85891495       0.60942110       0.75078936 </v>
   <v>       0.14310842       0.39326215       0.24927930 </v>
   <v>       0.39091677       0.86110025       0.24957956 </v>
   <v>       0.25561667       0.74647450       0.87603362 </v>
   <v>       0.14167438       0.89012521       0.75030290 </v>
   <v>       0.64275238       0.89637671       0.24962147 </v>
   <v>       0.63939189       0.39047964       0.74998826 </v>
   <v>       0.50565325       0.46700102       0.36173762 </v>
   <v>       0.64160497       0.89047309       0.75052392 </v>
   <v>       0.36051733       0.39061028       0.99874871 </v>
   <v>       0.36182289       0.38991275       0.50148718 </v>
   <v>       0.36122277       0.88877602       0.00030867 </v>
   <v>       0.85984205       0.39027979       0.99936205 </v>
   <v>       0.86012703       0.38745395       0.50093921 </v>
   <v>       0.86008872       0.88974466       0.99758749 </v>
   <v>       0.86059165       0.88938388       0.50251306 </v>
   <v>       0.14024028       0.11102917       0.00390314 </v>
   <v>       0.13971508       0.11128321       0.49600267 </v>
   <v>       0.14034784       0.61034765       0.99973036 </v>
   <v>       0.36123613       0.11561115       0.24949340 </v>
   <v>       0.63939480       0.11027706       0.00120059 </v>
   <v>       0.63858762       0.11085037       0.49881592 </v>
   <v>       0.63832703       0.60826477       0.00762704 </v>
   <v>       0.63720345       0.60895979       0.49243492 </v>
   <v>       0.10987278       0.35972173       0.00097823 </v>
   <v>       0.11262682       0.35952336       0.49894033 </v>
   <v>       0.11092923       0.86000251       0.99781612 </v>
   <v>       0.11161378       0.86128346       0.50226597 </v>
   <v>       0.60937627       0.35952786       0.99580322 </v>
   <v>       0.60986728       0.36004705       0.50453678 </v>
   <v>       0.61000904       0.85975552       0.99922193 </v>
   <v>       0.61065678       0.86066950       0.50087307 </v>
   <v>       0.38922614       0.13848847       0.99854973 </v>
   <v>       0.38872870       0.13763707       0.50167836 </v>
   <v>       0.39158442       0.63676011       0.01027431 </v>
   <v>       0.39131416       0.63644052       0.48979196 </v>
   <v>       0.88913857       0.14018912       0.00344191 </v>
   <v>       0.88851172       0.13879455       0.49635755 </v>
   <v>       0.88891234       0.63960135       0.00075886 </v>
   <v>       0.88626056       0.63958487       0.49918255 </v>
   <v>       0.99945999       0.99569819       0.12463069 </v>
   <v>       0.00111246       0.00321136       0.62475040 </v>
   <v>       0.99967199       0.50044859       0.12414172 </v>
   <v>       0.49986284       0.50509373       0.87713653 </v>
   <v>       0.50045311       0.99961283       0.12435761 </v>
   <v>       0.50082640       0.99976893       0.62570804 </v>
   <v>       0.50511413       0.46644152       0.13915283 </v>
   <v>       0.49990703       0.50518637       0.62313893 </v>
   <v>       0.99938176       0.99519241       0.37521091 </v>
   <v>       0.00122051       0.00303932       0.87539214 </v>
   <v>       0.99970837       0.50023544       0.37373713 </v>
   <v>       0.00055068       0.50067173       0.87543505 </v>
   <v>       0.14320178       0.89461810       0.24965989 </v>
   <v>       0.50092185       0.99983774       0.87506195 </v>
   <v>       0.24733268       0.75373087       0.12521308 </v>
   <v>       0.50037044       0.99958129       0.37510952 </v>
   <v>       0.26073622       0.25853702       0.37226977 </v>
   <v>       0.24924034       0.24937038       0.87568952 </v>
   <v>       0.75136194       0.24712024       0.62540802 </v>
   <v>       0.74305050       0.25986763       0.37322972 </v>
   <v>       0.60271685       0.15304083       0.24981940 </v>
   <v>       0.75064387       0.75556768       0.37465128 </v>
   <v>       0.74743825       0.74583385       0.87578627 </v>
   <v>       0.25974670       0.25834850       0.12704508 </v>
   <v>       0.24970646       0.24910567       0.62499434 </v>
   <v>       0.00048758       0.50059441       0.62665459 </v>
   <v>       0.25576038       0.74733283       0.62465480 </v>
   <v>       0.74298220       0.25976462       0.12623821 </v>
   <v>       0.36205116       0.88829682       0.49979645 </v>
   <v>       0.75130817       0.75545420       0.12478165 </v>
   <v>       0.74682513       0.74596532       0.62492013 </v>
  </varray>
 </structure>
 <calculation>
  <scstep>
   <time name="dav">  289.40  289.46</time>
   <time name="total">  293.11  293.23</time>
   <energy>
    <i name="alphaZ">   5637.48391162 </i>
    <i name="ewald"> -61199.77681305 </i>
    <i name="hartreedc"> -15305.05558781 </i>
    <i name="XCdc">   2852.82665653 </i>
    <i name="pawpsdc"> 112114.70899728 </i>
    <i name="pawaedc">-110863.22747592 </i>
    <i name="eentropy">     -0.00000000 </i>
    <i name="bandstr">  -7040.49832703 </i>
    <i name="atom">  72650.08363186 </i>
    <i name="e_fr_energy">  -1153.45500651 </i>
    <i name="e_wo_entrp">  -1153.45500651 </i>
    <i name="e_0_energy">  -1153.45500651 </i>
   </energy>
  </scstep>
  <scstep>
   <time name="diag">   33.31   33.32</time>
   <time name="diis">   30.37   30.37</time>
   <time name="orth">   18.96   18.96</time>
   <time name="total">   86.39   86.41</time>
   <energy>
    <i name="e_fr_energy">  -1153.45500646 </i>
    <i name="e_wo_entrp">  -1153.45500646 </i>
    <i name="e_0_energy">  -1153.45500646 </i>
   </energy>
  </scstep>
  <scstep>
   <time name="diag">   33.34   33.34</time>
   <time name="diis">   28.10   28.10</time>
   <time name="orth">   18.85   18.85</time>
   <time name="total">   84.04   84.12</time>
   <energy>
    <i name="e_fr_energy">  -1153.45500661 </i>
    <i name="e_wo_entrp">  -1153.45500661 </i>
    <i name="e_0_energy">  -1153.45500661 </i>
   </energy>
  </scstep>
  <scstep>
   <time name="diag">   33.30   33.32</time>
   <time name="diis">   23.79   23.81</time>
   <time name="orth">   18.93   18.93</time>
   <time name="total">   79.76   79.87</time>
   <energy>
    <i name="e_fr_energy">  -1153.45500666 </i>
    <i name="e_wo_entrp">  -1153.45500666 </i>
    <i name="e_0_energy">  -1153.45500666 </i>
   </energy>
  </scstep>
  <scstep>
   <time name="diag">   33.37   33.37</time>
   <time name="diis">   22.93   22.93</time>
   <time name="orth">   18.85   18.86</time>
   <time name="total">   78.89   78.92</time>
   <energy>
    <i name="e_fr_energy">  -1153.45500672 </i>
    <i name="e_wo_entrp">  -1153.45500672 </i>
    <i name="e_0_energy">  -1153.45500672 </i>
   </energy>
  </scstep>
  <scstep>
   <time name="diag">   33.33   33.34</time>
   <time name="diis">   21.85   21.85</time>
   <time name="orth">   18.95   18.95</time>
   <time name="total">   77.84   77.94</time>
   <energy>
    <i name="e_fr_energy">  -1153.45500670 </i>
    <i name="e_wo_entrp">  -1153.45500670 </i>
    <i name="e_0_energy">  -1153.45500670 </i>
   </energy>
  </scstep>
  <scstep>
   <time name="diag">   33.23   33.25</time>
   <time name="diis">   21.49   21.51</time>
   <time name="orth">   18.85   18.86</time>
   <time name="total">   77.28   77.37</time>
   <energy>
    <i name="e_fr_energy">  -1153.45500669 </i>
    <i name="e_wo_entrp">  -1153.45500669 </i>
    <i name="e_0_energy">  -1153.45500669 </i>
   </energy>
  </scstep>
  <scstep>
   <time name="diag">   33.20   33.20</time>
   <time name="diis">   21.20   21.21</time>
   <time name="orth">   18.88   18.88</time>
   <time name="total">   73.86   73.95</time>
   <energy>
    <i name="alphaZ">   5637.48391162 </i>
    <i name="ewald"> -61199.77681305 </i>
    <i name="hartreedc"> -15305.05516837 </i>
    <i name="XCdc">   2852.82618938 </i>
    <i name="pawpsdc"> 112113.47864557 </i>
    <i name="pawaedc">-110861.99735748 </i>
    <i name="eentropy">     -0.00000000 </i>
    <i name="bandstr">  -7040.49804624 </i>
    <i name="atom">  72650.08363186 </i>
    <i name="e_fr_energy">  -1153.45500670 </i>
    <i name="e_wo_entrp">  -1153.45500670 </i>
    <i name="e_0_energy">  -1153.45500670 </i>
   </energy>
  </scstep>
  <structure>
   <crystal>
    <varray name="basis" >
     <v>      11.21550068       0.00248074       0.00036533 </v>
     <v>       0.00247414      11.21808107      -0.00004958 </v>
     <v>       0.00052223      -0.00007372      15.92622419 </v>
    </varray>
    <i name="volume">   2003.78002809 </i>
    <varray name="rec_basis" >
     <v>       0.08916232      -0.00001966      -0.00000292 </v>
     <v>      -0.00001972       0.08914181       0.00000041 </v>
     <v>      -0.00000205       0.00000028       0.06278952 </v>
    </varray>
   </crystal>
   <varray name="positions" >
    <v>       0.99760575       0.25289247       0.12504381 </v>
    <v>       0.99952536       0.25233234       0.62301806 </v>
    <v>       0.00047097       0.74906027       0.12427085 </v>
    <v>       0.00006168       0.74733659       0.62358421 </v>
    <v>       0.50188122       0.24121070       0.11821720 </v>
    <v>       0.49934722       0.24949648       0.62575327 </v>
    <v>       0.50203282       0.76004640       0.12430256 </v>
    <v>       0.49927108       0.74882356       0.62375496 </v>
    <v>       0.99752634       0.25502660       0.37668638 </v>
    <v>       0.99975035       0.25063926       0.87496021 </v>
    <v>       0.00061495       0.74758836       0.37716039 </v>
    <v>       0.99971642       0.74909795       0.87451856 </v>
    <v>       0.50220247       0.24110703       0.38266331 </v>
    <v>       0.49936724       0.24955014       0.87340864 </v>
    <v>       0.50206401       0.76032729       0.37646380 </v>
    <v>       0.49927575       0.74877718       0.87533315 </v>
    <v>       0.25171644       0.99983611       0.12539990 </v>
    <v>       0.24993745       0.00132752       0.62338593 </v>
    <v>       0.24554255       0.50027995       0.12256828 </v>
    <v>       0.24769062       0.49875639       0.62433331 </v>
    <v>       0.75108975       0.99843769       0.12299097 </v>
    <v>       0.74967305       0.00090725       0.62477666 </v>
    <v>       0.75677181       0.50017534       0.12311276 </v>
    <v>       0.75142960       0.49943475       0.62320041 </v>
    <v>       0.25185907       0.99979170       0.37528814 </v>
    <v>       0.24960547       0.00132141       0.87557243 </v>
    <v>       0.24326633       0.49988859       0.37872784 </v>
    <v>       0.24918810       0.49898954       0.87384052 </v>
    <v>       0.75096124       0.99859041       0.37760642 </v>
    <v>       0.74993983       0.00094012       0.87447406 </v>
    <v>       0.75956088       0.50074364       0.37889288 </v>
    <v>       0.74966401       0.49911504       0.87484004 </v>
    <v>       0.00028296       0.99988243       0.00040002 </v>
    <v>       0.00033544       0.99985315       0.49949978 </v>
    <v>       0.00017380       0.50004890       0.99932510 </v>
    <v>       0.24927319       0.74840022       0.49924262 </v>
    <v>       0.50004145       0.99960811       0.99877738 </v>
    <v>       0.50010229       0.99965451       0.50125506 </v>
    <v>       0.25004023       0.25066300       0.00192939 </v>
    <v>       0.24878540       0.25183563       0.49779246 </v>
    <v>       0.99978640       0.50001026       0.74839727 </v>
    <v>       0.75290816       0.75287042       0.25006622 </v>
    <v>       0.50023609       0.49766234       0.00118658 </v>
    <v>       0.75112003       0.25198403       0.49868933 </v>
    <v>       0.75010761       0.75002505       0.00011757 </v>
    <v>       0.75141896       0.74895441       0.49977822 </v>
    <v>       0.50036046       0.49757985       0.49799121 </v>
    <v>       0.75050585       0.24938244       0.74974061 </v>
    <v>       0.25079568       0.74969515       0.74974616 </v>
    <v>       0.50052752       0.00616621       0.25003043 </v>
    <v>       0.74985359       0.25057650       0.00109071 </v>
    <v>       0.00045681       0.49942577       0.25127440 </v>
    <v>       0.74968442       0.74926006       0.74979625 </v>
    <v>       0.99967305       0.99665061       0.25022882 </v>
    <v>       0.00020209       0.00064680       0.74969695 </v>
    <v>       0.50010995       0.99917062       0.74998011 </v>
    <v>       0.24766898       0.75225159       0.25003269 </v>
    <v>       0.25021381       0.74973691       0.00056511 </v>
    <v>       0.24928859       0.24970930       0.74968962 </v>
    <v>       0.49980624       0.50107752       0.74942513 </v>
    <v>       0.23504358       0.24036784       0.25004013 </v>
    <v>       0.00050569       0.50015928       0.50074090 </v>
    <v>       0.49578136       0.52591282       0.25043535 </v>
    <v>       0.75851745       0.23606632       0.25004929 </v>
    <v>       0.09994123       0.14151750       0.25015627 </v>
    <v>       0.10929936       0.14080819       0.75001296 </v>
    <v>       0.10607573       0.64460869       0.24944230 </v>
    <v>       0.11024819       0.64143675       0.75063366 </v>
    <v>       0.14073418       0.61292815       0.50042449 </v>
    <v>       0.60959500       0.13998358       0.75051639 </v>
    <v>       0.34957148       0.60524397       0.25028222 </v>
    <v>       0.60830577       0.64074554       0.75039761 </v>
    <v>       0.61076748       0.64533564       0.24960501 </v>
    <v>       0.39073063       0.36046758       0.75031770 </v>
    <v>       0.89008639       0.35929322       0.75073282 </v>
    <v>       0.39186818       0.85863508       0.75056386 </v>
    <v>       0.88096243       0.36518109       0.24915362 </v>
    <v>       0.24726370       0.75469782       0.37429080 </v>
    <v>       0.89452144       0.85571869       0.24999427 </v>
    <v>       0.89069280       0.85883991       0.74995871 </v>
    <v>       0.75135288       0.24800084       0.87527992 </v>
    <v>       0.35985538       0.10923562       0.75057088 </v>
    <v>       0.14063380       0.39025823       0.75076112 </v>
    <v>       0.35935612       0.60833688       0.75001330 </v>
    <v>       0.85667180       0.10058467       0.24971571 </v>
    <v>       0.85947580       0.10834554       0.75038335 </v>
    <v>       0.85709461       0.61056706       0.24937534 </v>
    <v>       0.85891495       0.60942110       0.75078936 </v>
    <v>       0.14310842       0.39326215       0.24927930 </v>
    <v>       0.39091677       0.86110025       0.24957956 </v>
    <v>       0.25561667       0.74647450       0.87603362 </v>
    <v>       0.14167438       0.89012521       0.75030290 </v>
    <v>       0.64275238       0.89637671       0.24962147 </v>
    <v>       0.63939189       0.39047964       0.74998826 </v>
    <v>       0.50565325       0.46700102       0.36173762 </v>
    <v>       0.64160497       0.89047309       0.75052392 </v>
    <v>       0.36051733       0.39061028       0.99874871 </v>
    <v>       0.36182289       0.38991275       0.50148718 </v>
    <v>       0.36122277       0.88877602       0.00030867 </v>
    <v>       0.85984205       0.39027979       0.99936205 </v>
    <v>       0.86012703       0.38745395       0.50093921 </v>
    <v>       0.86008872       0.88974466       0.99758749 </v>
    <v>       0.86059165       0.88938388       0.50251306 </v>
    <v>       0.14024028       0.11102917       0.00390314 </v>
    <v>       0.13971508       0.11128321       0.49600267 </v>
    <v>       0.14034784       0.61034765       0.99973036 </v>
    <v>       0.36123613       0.11561115       0.24949340 </v>
    <v>       0.63939480       0.11027706       0.00120059 </v>
    <v>       0.63858762       0.11085037       0.49881592 </v>
    <v>       0.63832703       0.60826477       0.00762704 </v>
    <v>       0.63720345       0.60895979       0.49243492 </v>
    <v>       0.10987278       0.35972173       0.00097823 </v>
    <v>       0.11262682       0.35952336       0.49894033 </v>
    <v>       0.11092923       0.86000251       0.99781612 </v>
    <v>       0.11161378       0.86128346       0.50226597 </v>
    <v>       0.60937627       0.35952786       0.99580322 </v>
    <v>       0.60986728       0.36004705       0.50453678 </v>
    <v>       0.61000904       0.85975552       0.99922193 </v>
    <v>       0.61065678       0.86066950       0.50087307 </v>
    <v>       0.38922614       0.13848847       0.99854973 </v>
    <v>       0.38872870       0.13763707       0.50167836 </v>
    <v>       0.39158442       0.63676011       0.01027431 </v>
    <v>       0.39131416       0.63644052       0.48979196 </v>
    <v>       0.88913857       0.14018912       0.00344191 </v>
    <v>       0.88851172       0.13879455       0.49635755 </v>
    <v>       0.88891234       0.63960135       0.00075886 </v>
    <v>       0.88626056       0.63958487       0.49918255 </v>
    <v>       0.99945999       0.99569819       0.12463069 </v>
    <v>       0.00111246       0.00321136       0.62475040 </v>
    <v>       0.99967199       0.50044859       0.12414172 </v>
    <v>       0.49986284       0.50509373       0.87713653 </v>
    <v>       0.50045311       0.99961283       0.12435761 </v>
    <v>       0.50082640       0.99976893       0.62570804 </v>
    <v>       0.50511413       0.46644152       0.13915283 </v>
    <v>       0.49990703       0.50518637       0.62313893 </v>
    <v>       0.99938176       0.99519241       0.37521091 </v>
    <v>       0.00122051       0.00303932       0.87539214 </v>
    <v>       0.99970837       0.50023544       0.37373713 </v>
    <v>       0.00055068       0.50067173       0.87543505 </v>
    <v>       0.14320178       0.89461810       0.24965989 </v>
    <v>       0.50092185       0.99983774       0.87506195 </v>
    <v>       0.24733268       0.75373087       0.12521308 </v>
    <v>       0.50037044       0.99958129       0.37510952 </v>
    <v>       0.26073622       0.25853702       0.37226977 </v>
    <v>       0.24924034       0.24937038       0.87568952 </v>
    <v>       0.75136194       0.24712024       0.62540802 </v>
    <v>       0.74305050       0.25986763       0.37322972 </v>
    <v>       0.60271685       0.15304083       0.24981940 </v>
    <v>       0.75064387       0.75556768       0.37465128 </v>
    <v>       0.74743825       0.74583385       0.87578627 </v>
    <v>       0.25974670       0.25834850       0.12704508 </v>
    <v>       0.24970646       0.24910567       0.62499434 </v>
    <v>       0.00048758       0.50059441       0.62665459 </v>
    <v>       0.25576038       0.74733283       0.62465480 </v>
    <v>       0.74298220       0.25976462       0.12623821 </v>
    <v>       0.36205116       0.88829682       0.49979645 </v>
    <v>       0.75130817       0.75545420       0.12478165 </v>
    <v>       0.74682513       0.74596532       0.62492013 </v>
   </varray>
  </structure>
  <varray name="forces" >
   <v>      -0.00059809      -0.00333782       0.00705177 </v>
   <v>       0.00330119      -0.00147868       0.00044386 </v>
   <v>       0.00222266       0.00097403       0.00527630 </v>
   <v>      -0.00040260       0.00015445      -0.00015090 </v>
   <v>       0.00137380       0.00518482      -0.00572466 </v>
   <v>      -0.00139577       0.00057622      -0.00072679 </v>
   <v>       0.00063500       0.00717731      -0.00335356 </v>
   <v>       0.00324144      -0.00221765       0.00441554 </v>
   <v>      -0.00096593      -0.00437658      -0.00957294 </v>
   <v>       0.00463612      -0.00073153       0.00149691 </v>
   <v>       0.00287348       0.00363797      -0.00080464 </v>
   <v>       0.00257409      -0.00559342       0.00113505 </v>
   <v>       0.00057164       0.00648911      -0.00110434 </v>
   <v>      -0.00524737       0.00200022      -0.00135943 </v>
   <v>       0.00267227       0.00233825      -0.00044055 </v>
   <v>       0.00457166      -0.00167144      -0.00452080 </v>
   <v>       0.00314005       0.00151194       0.00207157 </v>
   <v>      -0.00117223       0.00010352      -0.00313059 </v>
   <v>      -0.00314221       0.00303002       0.00833483 </v>
   <v>       0.00256445       0.00406036       0.00196111 </v>
   <v>      -0.00354524       0.00314041       0.00277261 </v>
   <v>      -0.00091978       0.00287625       0.00040334 </v>
   <v>       0.00121496       0.00688042       0.00188517 </v>
   <v>      -0.00739272      -0.00306154       0.00308390 </v>
   <v>       0.00274245      -0.00037252      -0.00232229 </v>
   <v>       0.00211673       0.00409206       0.00218365 </v>
   <v>      -0.00634006       0.00115010      -0.00428797 </v>
   <v>       0.00472487      -0.00164211      -0.00212725 </v>
   <v>      -0.00079565       0.00306633      -0.00125107 </v>
   <v>      -0.00677172       0.00444838      -0.00356341 </v>
   <v>       0.00082995       0.00216243       0.00015228 </v>
   <v>      -0.00902591      -0.00373619      -0.00085771 </v>
   <v>       0.01085012       0.00916829       0.00534985 </v>
   <v>       0.01071832       0.00343867      -0.00404681 </v>
   <v>      -0.01055460      -0.00745097      -0.00180977 </v>
   <v>       0.00271002      -0.00219752       0.00163491 </v>
   <v>       0.00185233       0.00779692      -0.00627868 </v>
   <v>      -0.00625242       0.00980724       0.00512889 </v>
   <v>       0.00348170      -0.01042105      -0.01358337 </v>
   <v>      -0.00049621      -0.01306291      -0.00895766 </v>
   <v>      -0.00132244       0.00073564      -0.00309973 </v>
   <v>      -0.00393693       0.00013364      -0.00489039 </v>
   <v>       0.00981630       0.00618318      -0.00086956 </v>
   <v>      -0.00807762       0.00399896      -0.00445911 </v>
   <v>      -0.03395038      -0.03923425      -0.01688614 </v>
   <v>      -0.00014090      -0.01136943       0.01081546 </v>
   <v>       0.00932346       0.01366478       0.00222842 </v>
   <v>      -0.02534931       0.02294006       0.00827140 </v>
   <v>       0.01314054      -0.01877779      -0.00529648 </v>
   <v>      -0.00366473       0.00000580       0.00351341 </v>
   <v>      -0.01727658      -0.00347053      -0.00396921 </v>
   <v>      -0.00332275      -0.01314531       0.00270237 </v>
   <v>      -0.01968474      -0.01403978      -0.00849106 </v>
   <v>       0.00192213       0.01660983       0.01298443 </v>
   <v>       0.01530230      -0.00000886      -0.02281038 </v>
   <v>       0.00917537      -0.00962529       0.00722577 </v>
   <v>       0.00719221      -0.00566252       0.02362064 </v>
   <v>       0.01327823       0.00234995      -0.00570538 </v>
   <v>       0.00388114       0.00761598       0.03597141 </v>
   <v>       0.01173997      -0.02404219      -0.00124660 </v>
   <v>      -0.01557615      -0.01228651       0.00705700 </v>
   <v>       0.00310620       0.00442162      -0.00227772 </v>
   <v>      -0.00156272       0.00536529      -0.00174478 </v>
   <v>       0.02030598      -0.01364746       0.00622251 </v>
   <v>       0.00644486       0.00792437       0.00265171 </v>
   <v>      -0.00114014      -0.00773041       0.00129010 </v>
   <v>       0.00200224      -0.00673444       0.00238639 </v>
   <v>      -0.00810122      -0.00528836       0.00018726 </v>
   <v>      -0.00707102       0.00106039       0.00212974 </v>
   <v>       0.00443635      -0.00116347      -0.00503573 </v>
   <v>      -0.01383179      -0.00082213       0.00133923 </v>
   <v>       0.00075099       0.00107543       0.00025862 </v>
   <v>       0.00644064       0.00599532       0.00063428 </v>
   <v>       0.00123689      -0.00068494      -0.00779028 </v>
   <v>       0.00078994      -0.00114917      -0.00193395 </v>
   <v>      -0.00347552       0.00390075       0.00009257 </v>
   <v>      -0.00406727       0.00657580       0.00059964 </v>
   <v>      -0.00499498       0.00575815       0.00095810 </v>
   <v>       0.01082818       0.00429634      -0.00377443 </v>
   <v>       0.00595482       0.00540508       0.00026162 </v>
   <v>      -0.00138408      -0.00109732       0.00325752 </v>
   <v>      -0.00220123       0.00385635      -0.00515123 </v>
   <v>      -0.00273831      -0.00335769      -0.00409830 </v>
   <v>       0.00207889      -0.00337194       0.00002970 </v>
   <v>       0.00060274      -0.00781215      -0.00067048 </v>
   <v>       0.00927900      -0.00735093       0.00123213 </v>
   <v>       0.00245887       0.00281832      -0.00152259 </v>
   <v>       0.00122406      -0.00304774      -0.00012673 </v>
   <v>       0.00011345       0.00175765       0.00216280 </v>
   <v>       0.00128716      -0.00029178      -0.00053396 </v>
   <v>      -0.00242659      -0.00632960       0.00941140 </v>
   <v>      -0.00837452       0.00403617      -0.00041189 </v>
   <v>      -0.00024372       0.00850501      -0.00080896 </v>
   <v>       0.00176713       0.00589044      -0.00165360 </v>
   <v>       0.00717184       0.00462110      -0.00635518 </v>
   <v>       0.00040174      -0.00302933      -0.00302750 </v>
   <v>       0.00221645      -0.00105840       0.00678416 </v>
   <v>       0.00002980      -0.00704194      -0.00075862 </v>
   <v>      -0.00499431      -0.00624693      -0.00864501 </v>
   <v>       0.01167688       0.00221722       0.00266807 </v>
   <v>      -0.00208419      -0.00667938      -0.00296494 </v>
   <v>       0.00738241       0.00476413      -0.00592102 </v>
   <v>       0.00641787      -0.00541939       0.00767339 </v>
   <v>      -0.00984347       0.00221417      -0.00472282 </v>
   <v>      -0.00222232       0.01218571      -0.00078268 </v>
   <v>      -0.00545785       0.00127079       0.00149784 </v>
   <v>       0.00072728       0.00038097      -0.00181407 </v>
   <v>      -0.00114294       0.00506237      -0.00796300 </v>
   <v>      -0.00108431       0.00624128       0.00500203 </v>
   <v>      -0.00132494       0.00564468      -0.00489558 </v>
   <v>      -0.00443972       0.00556171       0.00250343 </v>
   <v>      -0.00749808       0.01334894       0.00100436 </v>
   <v>       0.00581549      -0.00078399       0.00155764 </v>
   <v>      -0.00212587       0.00297039      -0.00689994 </v>
   <v>      -0.00591070       0.00799542       0.01724771 </v>
   <v>       0.00216248       0.00020515       0.00374102 </v>
   <v>       0.00725665       0.00111034      -0.00125927 </v>
   <v>       0.01213876       0.00021917      -0.00331971 </v>
   <v>       0.00886944       0.00326020       0.00303819 </v>
   <v>       0.00218441      -0.00449438       0.00646087 </v>
   <v>      -0.00248348      -0.00453758      -0.00429433 </v>
   <v>      -0.01037554       0.00334443      -0.00547106 </v>
   <v>      -0.00372092      -0.00351019       0.00569387 </v>
   <v>       0.00111833      -0.00395044      -0.00601332 </v>
   <v>      -0.00231734      -0.00446309       0.00563115 </v>
   <v>      -0.00078447      -0.00394991      -0.00206730 </v>
   <v>      -0.00332011      -0.00087553       0.00115438 </v>
   <v>      -0.00625308      -0.00664675      -0.00934458 </v>
   <v>      -0.00275533       0.00240385       0.00838878 </v>
   <v>       0.00266859      -0.00244623      -0.00644873 </v>
   <v>      -0.00740581      -0.00381847       0.00559591 </v>
   <v>       0.00131311       0.00011629      -0.00218296 </v>
   <v>       0.00063676      -0.00332561      -0.00368182 </v>
   <v>       0.00178171       0.00329285       0.01006830 </v>
   <v>      -0.00450747       0.00006126      -0.00246348 </v>
   <v>      -0.00355155      -0.01405951      -0.00340645 </v>
   <v>      -0.00126826      -0.00075009      -0.00115105 </v>
   <v>       0.00702685      -0.00045986       0.00338284 </v>
   <v>      -0.00080407      -0.00292100       0.00451403 </v>
   <v>       0.00226398       0.00984228      -0.00332689 </v>
   <v>      -0.00291228      -0.00802162       0.00721980 </v>
   <v>      -0.00311851       0.00438103      -0.01280378 </v>
   <v>      -0.00134225      -0.00157198      -0.00052033 </v>
   <v>       0.00541939       0.00176078       0.00511325 </v>
   <v>       0.00144981       0.00371441      -0.00131294 </v>
   <v>       0.00043885      -0.00298822      -0.00248373 </v>
   <v>      -0.00446882       0.00445733       0.00658018 </v>
   <v>      -0.01718943       0.00534483       0.00110228 </v>
   <v>       0.00732505       0.00591079       0.00764960 </v>
   <v>       0.00433127       0.00592661       0.00224120 </v>
   <v>       0.00783840       0.00575684       0.00257953 </v>
   <v>      -0.00028762       0.00558122      -0.00609540 </v>
   <v>      -0.00225183      -0.00028847       0.00029962 </v>
   <v>       0.00176654      -0.00571662      -0.00228676 </v>
   <v>      -0.00368728       0.00292592      -0.00740189 </v>
   <v>       0.01098928      -0.00542274       0.00425881 </v>
   <v>       0.00620444       0.00306160      -0.00909921 </v>
   <v>       0.00334509       0.00206951       0.00148977 </v>
  </varray>
  <varray name="stress" >
   <v>       0.09494263      -0.01312140       0.01665092 </v>
   <v>      -0.01312168       0.21319006       0.00637288 </v>
   <v>       0.01665103       0.00637285       0.07788814 </v>
  </varray>
  <energy>
   <i name="e_fr_energy">  -1153.45500670 </i>
   <i name="e_wo_entrp">  -1153.45500670 </i>
   <i name="e_0_energy">     -0.00000000 </i>
  </energy>
  <time name="totalsc"> 1004.17 1006.63</time>
 </calculation>
 <calculation>
  <scstep>
   <time name="dav">  289.10  289.13</time>
   <time name="total">  292.82  292.89</time>
   <energy>
    <i name="alphaZ">   5636.65298170 </i>
    <i name="ewald"> -61196.66029224 </i>
    <i name="hartreedc"> -15304.39179613 </i>
    <i name="XCdc">   2852.63670965 </i>
    <i name="pawpsdc"> 112113.47620164 </i>
    <i name="pawaedc">-110861.99492946 </i>
    <i name="eentropy">     -0.00000000 </i>
    <i name="bandstr">  -7043.25761647 </i>
    <i name="atom">  72650.08363186 </i>
    <i name="e_fr_energy">  -1153.45510945 </i>
    <i name="e_wo_entrp">  -1153.45510945 </i>
    <i name="e_0_energy">  -1153.45510945 </i>
   </energy>
  </scstep>
  <scstep>
   <time name="diag">   33.25   33.26</time>
   <time name="diis">   51.58   51.58</time>
   <time name="orth">   18.87   18.88</time>
   <time name="total">  107.45  107.49</time>
   <energy>
    <i name="e_fr_energy">  -1153.45526772 </i>
    <i name="e_wo_entrp">  -1153.45526772 </i>
    <i name="e_0_energy">  -1153.45526772 </i>
   </energy>
  </scstep>
  <scstep>
   <time name="diag">   33.24   33.28</time>
   <time name="diis">   36.07   36.11</time>
   <time name="orth">   18.86   18.88</time>
   <time name="total">   91.93   92.07</time>
   <energy>
    <i name="e_fr_energy">  -1153.45521191 </i>
    <i name="e_wo_entrp">  -1153.45521191 </i>
    <i name="e_0_energy">  -1153.45521191 </i>
   </energy>
  </scstep>
  <scstep>
   <time name="diag">   33.25   33.31</time>
   <time name="diis">   32.61   32.62</time>
   <time name="orth">   18.87   18.87</time>
   <time name="total">   88.48   88.62</time>
   <energy>
    <i name="e_fr_energy">  -1153.45515615 </i>
    <i name="e_wo_entrp">  -1153.45515615 </i>
    <i name="e_0_energy">  -1153.45515615 </i>
   </energy>
  </scstep>
  <scstep>
   <time name="diag">   33.25   33.25</time>
   <time name="diis">   31.41   31.41</time>
   <time name="orth">   18.87   18.86</time>
   <time name="total">   87.28   87.33</time>
   <energy>
    <i name="e_fr_energy">  -1153.45514600 </i>
    <i name="e_wo_entrp">  -1153.45514600 </i>
    <i name="e_0_energy">  -1153.45514600 </i>
   </energy>
  </scstep>
  <scstep>
   <time name="diag">   33.29   33.29</time>
   <time name="diis">   30.86   30.89</time>
   <time name="orth">   18.87   18.87</time>
   <time name="total">   86.77   86.87</time>
   <energy>
    <i name="e_fr_energy">  -1153.45514264 </i>
    <i name="e_wo_entrp">  -1153.45514264 </i>
    <i name="e_0_energy">  -1153.45514264 </i>
   </energy>
  </scstep>
  <scstep>
   <time name="diag">   33.23   33.23</time>
   <time name="diis">   29.65   29.67</time>
   <time name="orth">   18.90   18.90</time>
   <time name="total">   85.50   85.56</time>
   <energy>
    <i name="e_fr_energy">  -1153.45514155 </i>
    <i name="e_wo_entrp">  -1153.45514155 </i>
    <i name="e_0_energy">  -1153.45514155 </i>
   </energy>
  </scstep>
  <scstep>
   <time name="diag">   33.24   33.25</time>
   <time name="diis">   28.97   28.97</time>
   <time name="orth">   18.90   18.90</time>
   <time name="total">   81.69   81.73</time>
   <energy>
    <i name="alphaZ">   5636.65298170 </i>
    <i name="ewald"> -61196.66029224 </i>
    <i name="hartreedc"> -15306.41316281 </i>
    <i name="XCdc">   2852.77586116 </i>
    <i name="pawpsdc"> 112081.83285477 </i>
    <i name="pawaedc">-110830.33307170 </i>
    <i name="eentropy">     -0.00000000 </i>
    <i name="bandstr">  -7041.39394318 </i>
    <i name="atom">  72650.08363186 </i>
    <i name="e_fr_energy">  -1153.45514045 </i>
    <i name="e_wo_entrp">  -1153.45514045 </i>
    <i name="e_0_energy">  -1153.45514045 </i>
   </energy>
  </scstep>
  <structure>
   <crystal>
    <varray name="basis" >
     <v>      11.21590729       0.00242474       0.00043666 </v>
     <v>       0.00241802      11.21899433      -0.00002227 </v>
     <v>       0.00062352      -0.00003497      15.92669789 </v>
    </varray>
    <i name="volume">   2004.07541629 </i>
    <varray name="rec_basis" >
     <v>       0.08915909      -0.00001922      -0.00000349 </v>
     <v>      -0.00001927       0.08913455       0.00000020 </v>
     <v>      -0.00000244       0.00000013       0.06278765 </v>
    </varray>
   </crystal>
   <varray name="positions" >
    <v>       0.99760318       0.25287812       0.12506517 </v>
    <v>       0.99953956       0.25232598       0.62301940 </v>
    <v>       0.00048053       0.74906446       0.12428683 </v>
    <v>       0.00005995       0.74733725       0.62358376 </v>
    <v>       0.50188712       0.24123300       0.11819986 </v>
    <v>       0.49934122       0.24949896       0.62575107 </v>
    <v>       0.50203555       0.76007727       0.12429240 </v>
    <v>       0.49928502       0.74881402       0.62376833 </v>
    <v>       0.99752219       0.25500778       0.37665738 </v>
    <v>       0.99977030       0.25063611       0.87496474 </v>
    <v>       0.00062731       0.74760400       0.37715795 </v>
    <v>       0.99972750       0.74907389       0.87452200 </v>
    <v>       0.50220492       0.24113493       0.38265996 </v>
    <v>       0.49934467       0.24955875       0.87340452 </v>
    <v>       0.50207551       0.76033734       0.37646247 </v>
    <v>       0.49929542       0.74876999       0.87531945 </v>
    <v>       0.25172994       0.99984261       0.12540617 </v>
    <v>       0.24993240       0.00132796       0.62337644 </v>
    <v>       0.24552903       0.50029298       0.12259353 </v>
    <v>       0.24770165       0.49877385       0.62433925 </v>
    <v>       0.75107449       0.99845120       0.12299937 </v>
    <v>       0.74966909       0.00091962       0.62477788 </v>
    <v>       0.75677703       0.50020492       0.12311847 </v>
    <v>       0.75139781       0.49942159       0.62320976 </v>
    <v>       0.25187086       0.99979009       0.37528111 </v>
    <v>       0.24961457       0.00133900       0.87557904 </v>
    <v>       0.24323906       0.49989354       0.37871485 </v>
    <v>       0.24920842       0.49898247       0.87383408 </v>
    <v>       0.75095781       0.99860360       0.37760263 </v>
    <v>       0.74991070       0.00095926       0.87446327 </v>
    <v>       0.75956445       0.50075294       0.37889335 </v>
    <v>       0.74962519       0.49909898       0.87483744 </v>
    <v>       0.00032962       0.99992185       0.00041622 </v>
    <v>       0.00038154       0.99986793       0.49948752 </v>
    <v>       0.00012840       0.50001687       0.99931962 </v>
    <v>       0.24928485       0.74839077       0.49924757 </v>
    <v>       0.50004941       0.99964164       0.99875836 </v>
    <v>       0.50007538       0.99969669       0.50127059 </v>
    <v>       0.25005522       0.25061818       0.00188825 </v>
    <v>       0.24878328       0.25177946       0.49776532 </v>
    <v>       0.99978071       0.50001343       0.74838788 </v>
    <v>       0.75289123       0.75287100       0.25005140 </v>
    <v>       0.50027831       0.49768892       0.00118395 </v>
    <v>       0.75108528       0.25200124       0.49867583 </v>
    <v>       0.74996161       0.74985636       0.00006642 </v>
    <v>       0.75141836       0.74890551       0.49981098 </v>
    <v>       0.50040055       0.49763861       0.49799796 </v>
    <v>       0.75039679       0.24948112       0.74976567 </v>
    <v>       0.25085222       0.74961439       0.74973011 </v>
    <v>       0.50051175       0.00616624       0.25004108 </v>
    <v>       0.74977928       0.25056160       0.00107869 </v>
    <v>       0.00044253       0.49936924       0.25128258 </v>
    <v>       0.74959976       0.74919970       0.74977053 </v>
    <v>       0.99968130       0.99672203       0.25026815 </v>
    <v>       0.00026791       0.00064675       0.74962785 </v>
    <v>       0.50014943       0.99912921       0.75000200 </v>
    <v>       0.24769992       0.75222723       0.25010424 </v>
    <v>       0.25027092       0.74974700       0.00054783 </v>
    <v>       0.24930527       0.24974204       0.74979858 </v>
    <v>       0.49985677       0.50097412       0.74942135 </v>
    <v>       0.23497659       0.24031502       0.25006150 </v>
    <v>       0.00051905       0.50017830       0.50073400 </v>
    <v>       0.49577463       0.52593590       0.25043007 </v>
    <v>       0.75860481       0.23600761       0.25006814 </v>
    <v>       0.09996894       0.14155157       0.25016430 </v>
    <v>       0.10929446       0.14077495       0.75001687 </v>
    <v>       0.10608434       0.64457973       0.24944953 </v>
    <v>       0.11021335       0.64141402       0.75063423 </v>
    <v>       0.14070376       0.61293271       0.50043094 </v>
    <v>       0.60961408       0.13997857       0.75050114 </v>
    <v>       0.34951198       0.60524045       0.25028627 </v>
    <v>       0.60830900       0.64075017       0.75039839 </v>
    <v>       0.61079518       0.64536142       0.24960693 </v>
    <v>       0.39073595       0.36046463       0.75029410 </v>
    <v>       0.89008979       0.35928828       0.75072696 </v>
    <v>       0.39185322       0.85865186       0.75056414 </v>
    <v>       0.88094493       0.36520937       0.24915544 </v>
    <v>       0.24724221       0.75472259       0.37429370 </v>
    <v>       0.89456801       0.85573716       0.24998284 </v>
    <v>       0.89071841       0.85886315       0.74995950 </v>
    <v>       0.75134693       0.24799613       0.87528978 </v>
    <v>       0.35984590       0.10925221       0.75055527 </v>
    <v>       0.14062202       0.39024380       0.75074870 </v>
    <v>       0.35936506       0.60832238       0.75001339 </v>
    <v>       0.85667440       0.10055108       0.24971368 </v>
    <v>       0.85951572       0.10831392       0.75038708 </v>
    <v>       0.85710519       0.61057917       0.24937073 </v>
    <v>       0.85892022       0.60940799       0.75078898 </v>
    <v>       0.14310891       0.39326971       0.24928585 </v>
    <v>       0.39092231       0.86109899       0.24957794 </v>
    <v>       0.25560624       0.74644729       0.87606213 </v>
    <v>       0.14163835       0.89014257       0.75030165 </v>
    <v>       0.64275132       0.89641328       0.24961902 </v>
    <v>       0.63939948       0.39050497       0.74998325 </v>
    <v>       0.50568410       0.46702088       0.36171837 </v>
    <v>       0.64160671       0.89046006       0.75051475 </v>
    <v>       0.36052687       0.39060572       0.99876926 </v>
    <v>       0.36182303       0.38988247       0.50148488 </v>
    <v>       0.36120130       0.88874916       0.00028248 </v>
    <v>       0.85989228       0.39028931       0.99937013 </v>
    <v>       0.86011807       0.38742523       0.50093023 </v>
    <v>       0.86012047       0.88976514       0.99756956 </v>
    <v>       0.86061926       0.88936057       0.50253631 </v>
    <v>       0.14019793       0.11103871       0.00388883 </v>
    <v>       0.13970551       0.11133561       0.49600030 </v>
    <v>       0.14032436       0.61035312       0.99973490 </v>
    <v>       0.36123926       0.11561278       0.24948790 </v>
    <v>       0.63938988       0.11029883       0.00117647 </v>
    <v>       0.63858295       0.11087721       0.49883107 </v>
    <v>       0.63832133       0.60828904       0.00761221 </v>
    <v>       0.63718434       0.60898371       0.49244251 </v>
    <v>       0.10984051       0.35977914       0.00098127 </v>
    <v>       0.11265183       0.35951998       0.49894505 </v>
    <v>       0.11092008       0.86001529       0.99779522 </v>
    <v>       0.11158834       0.86131785       0.50231822 </v>
    <v>       0.60938557       0.35952874       0.99581456 </v>
    <v>       0.60989849       0.36005182       0.50453297 </v>
    <v>       0.61006125       0.85975645       0.99921187 </v>
    <v>       0.61069493       0.86068351       0.50088227 </v>
    <v>       0.38923554       0.13846914       0.99856930 </v>
    <v>       0.38871803       0.13761756       0.50166535 </v>
    <v>       0.39153979       0.63677451       0.01025774 </v>
    <v>       0.39129816       0.63642543       0.48980921 </v>
    <v>       0.88914338       0.14017213       0.00342370 </v>
    <v>       0.88850176       0.13877536       0.49637461 </v>
    <v>       0.88890897       0.63958437       0.00075260 </v>
    <v>       0.88624628       0.63958110       0.49918604 </v>
    <v>       0.99943310       0.99566961       0.12460239 </v>
    <v>       0.00110060       0.00322170       0.62477581 </v>
    <v>       0.99968347       0.50043807       0.12412218 </v>
    <v>       0.49983099       0.50507731       0.87715348 </v>
    <v>       0.50045876       0.99961333       0.12435099 </v>
    <v>       0.50082914       0.99975463       0.62569689 </v>
    <v>       0.50512179       0.46645568       0.13918333 </v>
    <v>       0.49988764       0.50518664       0.62313147 </v>
    <v>       0.99936650       0.99513195       0.37520060 </v>
    <v>       0.00121506       0.00303610       0.87538865 </v>
    <v>       0.99973860       0.50023345       0.37374737 </v>
    <v>       0.00054722       0.50065917       0.87544872 </v>
    <v>       0.14321150       0.89466043       0.24964982 </v>
    <v>       0.50090933       0.99980325       0.87508382 </v>
    <v>       0.24731927       0.75374972       0.12517430 </v>
    <v>       0.50036466       0.99957453       0.37510795 </v>
    <v>       0.26075953       0.25854458       0.37228526 </v>
    <v>       0.24924658       0.24938635       0.87568554 </v>
    <v>       0.75136383       0.24710738       0.62540050 </v>
    <v>       0.74303127       0.25988680       0.37324965 </v>
    <v>       0.60264291       0.15306384       0.24982274 </v>
    <v>       0.75067537       0.75559309       0.37467445 </v>
    <v>       0.74745687       0.74585934       0.87579306 </v>
    <v>       0.25978042       0.25837325       0.12705289 </v>
    <v>       0.24970522       0.24912967       0.62497588 </v>
    <v>       0.00047789       0.50059317       0.62665549 </v>
    <v>       0.25576799       0.74730825       0.62464787 </v>
    <v>       0.74296634       0.25977720       0.12621578 </v>
    <v>       0.36209843       0.88827349       0.49980935 </v>
    <v>       0.75133486       0.75546736       0.12475409 </v>
    <v>       0.74683952       0.74597421       0.62492465 </v>
   </varray>
  </structure>
  <varray name="forces" >
   <v>      -0.00133302      -0.00168744      -0.00345855 </v>
   <v>       0.00046020      -0.00138115       0.00250093 </v>
   <v>       0.00248584       0.00410566      -0.00220173 </v>
   <v>      -0.00304797       0.00294940       0.00426070 </v>
   <v>      -0.00132257       0.00485058       0.00073822 </v>
   <v>      -0.00742514      -0.00372699      -0.00681881 </v>
   <v>      -0.00197632       0.00962319      -0.00189192 </v>
   <v>       0.00187858       0.00144887       0.00127207 </v>
   <v>       0.00028649       0.00117398       0.00162334 </v>
   <v>      -0.00274651      -0.00633540       0.00085299 </v>
   <v>      -0.00227354       0.00376751      -0.00321905 </v>
   <v>      -0.00129316       0.00317905       0.00539921 </v>
   <v>      -0.00186236       0.00591186      -0.00095870 </v>
   <v>      -0.00338817      -0.00228114       0.00215861 </v>
   <v>       0.00638401       0.00628671       0.00154679 </v>
   <v>      -0.00098124      -0.00026818      -0.00225625 </v>
   <v>      -0.00031024      -0.00396381       0.00074302 </v>
   <v>      -0.00210435       0.00198290       0.00286016 </v>
   <v>      -0.00788750       0.00413905       0.00177303 </v>
   <v>      -0.00068453      -0.00495755      -0.00166581 </v>
   <v>       0.00323993      -0.00506879      -0.00620338 </v>
   <v>       0.00479502       0.00498047       0.00120132 </v>
   <v>       0.00715809       0.00561659       0.00365009 </v>
   <v>       0.00108032      -0.00533319      -0.00143412 </v>
   <v>       0.00501189      -0.00117527      -0.00334542 </v>
   <v>      -0.00924012      -0.00618907      -0.00080781 </v>
   <v>      -0.00734268      -0.00381616      -0.00104993 </v>
   <v>      -0.00361551       0.00433443       0.00516078 </v>
   <v>      -0.00280051      -0.00279443       0.00628770 </v>
   <v>       0.01014990      -0.00067493      -0.00164535 </v>
   <v>       0.00220155       0.00291216      -0.00013778 </v>
   <v>       0.00450945      -0.00335156       0.00238536 </v>
   <v>      -0.01729085      -0.02332809      -0.01414220 </v>
   <v>      -0.01212514      -0.00668068       0.00650269 </v>
   <v>       0.01874087       0.01113772       0.00024051 </v>
   <v>      -0.00134817      -0.00081086       0.00758915 </v>
   <v>      -0.00215594      -0.00747933       0.00773326 </v>
   <v>       0.00585182      -0.00661002      -0.00362870 </v>
   <v>      -0.01099327       0.00247923       0.01317098 </v>
   <v>       0.00226978       0.00674257       0.01132983 </v>
   <v>       0.00016119      -0.00043304       0.00502297 </v>
   <v>       0.01055636       0.00847247      -0.00599548 </v>
   <v>      -0.01410975      -0.00452616       0.00362820 </v>
   <v>       0.00995927      -0.00701416       0.00429455 </v>
   <v>       0.05648720       0.05031825       0.00887918 </v>
   <v>       0.01442885       0.02172087      -0.00158169 </v>
   <v>      -0.00506726      -0.00494850      -0.00302052 </v>
   <v>       0.03813319      -0.03624960      -0.00985912 </v>
   <v>      -0.02360456       0.01672777       0.00745922 </v>
   <v>      -0.00110152       0.00294558      -0.00011526 </v>
   <v>       0.02105973      -0.00034189      -0.00034744 </v>
   <v>      -0.00116490       0.00262447      -0.00762361 </v>
   <v>       0.03449709       0.01377027       0.01062619 </v>
   <v>       0.00569147      -0.01134624      -0.01591101 </v>
   <v>      -0.01544525      -0.01730982       0.03917263 </v>
   <v>      -0.00694666       0.00243753      -0.00355879 </v>
   <v>      -0.00661393      -0.00110850      -0.02589291 </v>
   <v>      -0.01987322      -0.00760816       0.00266057 </v>
[...]
       <r>   -15.7614     0.0000    32.0000 </r>
       <r>   -15.6096     0.0000    32.0000 </r>
       <r>   -15.4579     0.0000    32.0000 </r>
       <r>   -15.3061     0.0000    32.0000 </r>
       <r>   -15.1543     0.3647    32.0553 </r>
       <r>   -15.0026    23.5567    35.6305 </r>
       <r>   -14.8508    56.2538    44.1679 </r>
       <r>   -14.6990    48.7891    51.5724 </r>
       <r>   -14.5473    28.5751    55.9091 </r>
       <r>   -14.3955    30.3822    60.5201 </r>
       <r>   -14.2437    36.0822    65.9962 </r>
       <r>   -14.0920   111.1470    82.8645 </r>
       <r>   -13.9402   153.5666   106.1707 </r>
       <r>   -13.7884   105.7521   122.2203 </r>
       <r>   -13.6367    22.5170   125.6376 </r>
       <r>   -13.4849     2.3881   126.0000 </r>
       <r>   -13.3331     0.0000   126.0000 </r>
       <r>   -13.1814     0.0000   126.0000 </r>
       <r>   -13.0296     0.0000   126.0000 </r>
       <r>   -12.8778     0.0000   126.0000 </r>
       <r>   -12.7261     0.0135   126.0021 </r>
       <r>   -12.5743    17.6841   128.6859 </r>
       <r>   -12.4225   111.8672   145.6635 </r>
       <r>   -12.2708   179.2492   172.8675 </r>
       <r>   -12.1190   143.8206   194.6946 </r>
       <r>   -11.9672   124.0009   213.5137 </r>
       <r>   -11.8155    51.4623   221.3239 </r>
       <r>   -11.6637     4.4548   222.0000 </r>
       <r>   -11.5119     0.0001   222.0000 </r>
       <r>   -11.3602     0.0000   222.0000 </r>
       <r>   -11.2084     0.0000   222.0000 </r>
       <r>   -11.0566     0.0000   222.0000 </r>
       <r>   -10.9049     0.0000   222.0000 </r>
       <r>   -10.7531     0.0000   222.0000 </r>
       <r>   -10.6013     0.0000   222.0000 </r>
       <r>   -10.4496     0.0000   222.0000 </r>
       <r>   -10.2978     0.0000   222.0000 </r>
       <r>   -10.1460     0.0000   222.0000 </r>
       <r>    -9.9943     0.0000   222.0000 </r>
       <r>    -9.8425     0.0000   222.0000 </r>
       <r>    -9.6907     0.0000   222.0000 </r>
       <r>    -9.5390     0.0000   222.0000 </r>
       <r>    -9.3872     0.0000   222.0000 </r>
       <r>    -9.2354     0.0000   222.0000 </r>
       <r>    -9.0837     0.0000   222.0000 </r>
       <r>    -8.9319     0.0000   222.0000 </r>
       <r>    -8.7801     0.0000   222.0000 </r>
       <r>    -8.6284     0.0000   222.0000 </r>
       <r>    -8.4766     0.0000   222.0000 </r>
       <r>    -8.3249     0.0000   222.0000 </r>
       <r>    -8.1731     0.0000   222.0000 </r>
       <r>    -8.0213     0.0000   222.0000 </r>
       <r>    -7.8696     0.0000   222.0000 </r>
       <r>    -7.7178     0.0000   222.0000 </r>
       <r>    -7.5660     0.0000   222.0000 </r>
       <r>    -7.4143     0.0000   222.0000 </r>
       <r>    -7.2625     0.0000   222.0000 </r>
       <r>    -7.1107     0.0000   222.0000 </r>
       <r>    -6.9590     0.0000   222.0000 </r>
       <r>    -6.8072     0.0000   222.0000 </r>
       <r>    -6.6554     0.0000   222.0000 </r>
       <r>    -6.5037     0.0000   222.0000 </r>
       <r>    -6.3519     0.0000   222.0000 </r>
       <r>    -6.2001     0.0000   222.0000 </r>
       <r>    -6.0484     0.0000   222.0000 </r>
       <r>    -5.8966     0.0000   222.0000 </r>
       <r>    -5.7448     0.0000   222.0000 </r>
       <r>    -5.5931     0.0000   222.0000 </r>
       <r>    -5.4413     0.0000   222.0000 </r>
       <r>    -5.2895     0.0000   222.0000 </r>
       <r>    -5.1378     0.0000   222.0000 </r>
       <r>    -4.9860     0.0000   222.0000 </r>
       <r>    -4.8342     0.0000   222.0000 </r>
       <r>    -4.6825     0.0000   222.0000 </r>
       <r>    -4.5307     0.0000   222.0000 </r>
       <r>    -4.3789     0.0000   222.0000 </r>
       <r>    -4.2272     0.0000   222.0000 </r>
       <r>    -4.0754     0.0000   222.0000 </r>
       <r>    -3.9236     0.0000   222.0000 </r>
       <r>    -3.7719     0.0000   222.0000 </r>
       <r>    -3.6201     0.0000   222.0000 </r>
       <r>    -3.4683     0.0000   222.0000 </r>
       <r>    -3.3166     0.0000   222.0000 </r>
       <r>    -3.1648     0.0000   222.0000 </r>
       <r>    -3.0130     0.0000   222.0000 </r>
       <r>    -2.8613     0.0000   222.0000 </r>
       <r>    -2.7095     0.0000   222.0000 </r>
       <r>    -2.5577     0.0000   222.0000 </r>
       <r>    -2.4060     0.0003   222.0000 </r>
       <r>    -2.2542     4.2265   222.6415 </r>
       <r>    -2.1024    15.8938   225.0536 </r>
       <r>    -1.9507    38.9154   230.9596 </r>
       <r>    -1.7989    44.6854   237.7414 </r>
       <r>    -1.6471    61.2922   247.0435 </r>
       <r>    -1.4954    56.6960   255.6480 </r>
       <r>    -1.3436    58.2636   264.4904 </r>
       <r>    -1.1918    72.0601   275.4267 </r>
       <r>    -1.0401    68.1934   285.7761 </r>
       <r>    -0.8883    78.2609   297.6535 </r>
       <r>    -0.7365    73.2945   308.7771 </r>
       <r>    -0.5848   111.6051   325.7150 </r>
       <r>    -0.4330   128.2510   345.1791 </r>
       <r>    -0.2813    70.3012   355.8484 </r>
       <r>    -0.1295    44.9755   362.6742 </r>
       <r>     0.0223    51.5747   370.5015 </r>
       <r>     0.1740    43.9334   377.1691 </r>
       <r>     0.3258    42.5023   383.6195 </r>
       <r>     0.4776    58.6008   392.5131 </r>
       <r>     0.6293    59.0575   401.4760 </r>
       <r>     0.7811    39.0637   407.4046 </r>
       <r>     0.9329    48.9355   414.8313 </r>
       <r>     1.0846    56.9974   423.4816 </r>
       <r>     1.2364    94.3420   437.7995 </r>
       <r>     1.3882    91.4226   451.6743 </r>
       <r>     1.5399   105.1941   467.6392 </r>
       <r>     1.6917    75.7896   479.1415 </r>
       <r>     1.8435    70.9848   489.9146 </r>
       <r>     1.9952    44.6216   496.6866 </r>
       <r>     2.1470    35.8098   502.1213 </r>
       <r>     2.2988    11.9933   503.9415 </r>
       <r>     2.4505     0.3853   504.0000 </r>
       <r>     2.6023     0.0000   504.0000 </r>
       <r>     2.7541     0.0000   504.0000 </r>
       <r>     2.9058     0.0000   504.0000 </r>
       <r>     3.0576     0.0000   504.0000 </r>
       <r>     3.2094     0.0000   504.0000 </r>
       <r>     3.3611     0.0000   504.0000 </r>
       <r>     3.5129     0.0000   504.0000 </r>
       <r>     3.6647     0.0000   504.0000 </r>
       <r>     3.8164     0.0000   504.0000 </r>
       <r>     3.9682     0.0000   504.0000 </r>
       <r>     4.1200     0.0000   504.0000 </r>
       <r>     4.2717     0.0000   504.0000 </r>
       <r>     4.4235     0.5416   504.0822 </r>
       <r>     4.5753    18.1224   506.8326 </r>
       <r>     4.7270    33.2695   511.8817 </r>
       <r>     4.8788    33.9993   517.0417 </r>
       <r>     5.0306    28.3838   521.3494 </r>
       <r>     5.1823    35.5066   526.7381 </r>
       <r>     5.3341    48.2401   534.0593 </r>
       <r>     5.4859    72.1554   545.0100 </r>
       <r>     5.6376    44.8250   551.8129 </r>
       <r>     5.7894    82.8469   564.3862 </r>
       <r>     5.9412   101.4101   579.7769 </r>
       <r>     6.0929    91.2471   593.6251 </r>
       <r>     6.2447    64.6897   603.4428 </r>
       <r>     6.3965    48.2105   610.7595 </r>
       <r>     6.5482    35.8181   616.1955 </r>
       <r>     6.7000    23.7543   619.8006 </r>
       <r>     6.8518    25.6418   623.6921 </r>
       <r>     7.0035    19.0087   626.5770 </r>
       <r>     7.1553    21.8493   629.8930 </r>
       <r>     7.3070    18.9847   632.7742 </r>
       <r>     7.4588    12.1944   634.6249 </r>
       <r>     7.6106    12.4099   636.5083 </r>
       <r>     7.7623    13.0189   638.4841 </r>
       <r>     7.9141    21.4044   641.7326 </r>
       <r>     8.0659    27.2796   645.8727 </r>
       <r>     8.2176    17.8603   648.5833 </r>
       <r>     8.3694    30.7434   653.2491 </r>
       <r>     8.5212    24.7364   657.0032 </r>
       <r>     8.6729    18.8574   659.8651 </r>
       <r>     8.8247    24.0492   663.5150 </r>
       <r>     8.9765    29.4329   667.9819 </r>
       <r>     9.1282    35.1167   673.3114 </r>
       <r>     9.2800    40.5359   679.4634 </r>
       <r>     9.4318    38.3663   685.2861 </r>
       <r>     9.5835    42.7354   691.7719 </r>
       <r>     9.7353    42.1245   698.1649 </r>
       <r>     9.8871    56.8583   706.7941 </r>
       <r>    10.0388    71.8135   717.6929 </r>
       <r>    10.1906    71.8535   728.5979 </r>
       <r>    10.3424    75.1955   740.0100 </r>
       <r>    10.4941    53.6015   748.1449 </r>
       <r>    10.6459    57.2834   756.8385 </r>
       <r>    10.7977    53.3842   764.9405 </r>
       <r>    10.9494    20.1441   767.9976 </r>
       <r>    11.1012     0.0155   768.0000 </r>
       <r>    11.2530     0.0000   768.0000 </r>
       <r>    11.4047     0.0000   768.0000 </r>
       <r>    11.5565     0.0000   768.0000 </r>
       <r>    11.7083     0.0000   768.0000 </r>
       <r>    11.8600     0.0000   768.0000 </r>
       <r>    12.0118     0.0000   768.0000 </r>
       <r>    12.1636     0.0000   768.0000 </r>
       <r>    12.3153     0.0000   768.0000 </r>
       <r>    12.4671     0.0000   768.0000 </r>
       <r>    12.6189     0.0000   768.0000 </r>
       <r>    12.7706     0.0000   768.0000 </r>
       <r>    12.9224     0.0000   768.0000 </r>
      </set>
     </set>
    </array>
   </total>
  </dos>
 </calculation>
 <structure name="finalpos" >
  <crystal>
   <varray name="basis" >
    <v>      11.21561178       0.00236777       0.00046532 </v>
    <v>       0.00236098      11.21892428      -0.00003869 </v>
    <v>       0.00066422      -0.00005831      15.92616256 </v>
   </varray>
   <i name="volume">   2003.94274443 </i>
   <varray name="rec_basis" >
    <v>       0.08916144      -0.00001876      -0.00000372 </v>
    <v>      -0.00001882       0.08913511       0.00000033 </v>
    <v>      -0.00000261       0.00000022       0.06278976 </v>
   </varray>
  </crystal>
  <varray name="positions" >
   <v>       0.99759895       0.25286833       0.12506860 </v>
   <v>       0.99954405       0.25232120       0.62302345 </v>
   <v>       0.00048827       0.74907257       0.12429060 </v>
   <v>       0.00005301       0.74734176       0.62358953 </v>
   <v>       0.50188603       0.24125053       0.11819550 </v>
   <v>       0.49932391       0.24949225       0.62574115 </v>
   <v>       0.50203366       0.76010395       0.12428720 </v>
   <v>       0.49929255       0.74881138       0.62377556 </v>
   <v>       0.99751972       0.25500241       0.37664885 </v>
   <v>       0.99977146       0.25062261       0.87496765 </v>
   <v>       0.00062754       0.74761591       0.37715312 </v>
   <v>       0.99972809       0.74907212       0.87453181 </v>
   <v>       0.50220216       0.24115797       0.38265753 </v>
   <v>       0.49933041       0.24955746       0.87340390 </v>
   <v>       0.50209021       0.76035258       0.37646455 </v>
   <v>       0.49930038       0.74876697       0.87530997 </v>
   <v>       0.25173641       0.99983567       0.12540948 </v>
   <v>       0.24992638       0.00133293       0.62337604 </v>
   <v>       0.24551060       0.50030378       0.12260393 </v>
   <v>       0.24770621       0.49877136       0.62433897 </v>
   <v>       0.75107599       0.99844568       0.12299405 </v>
   <v>       0.74967514       0.00093281       0.62477987 </v>
   <v>       0.75679098       0.50022619       0.12312528 </v>
   <v>       0.75138861       0.49940602       0.62321096 </v>
   <v>       0.25188441       0.99978604       0.37527488 </v>
   <v>       0.24960475       0.00133545       0.87558065 </v>
   <v>       0.24321497       0.49988716       0.37870994 </v>
   <v>       0.24920738       0.49898607       0.87383810 </v>
   <v>       0.75095005       0.99860189       0.37760933 </v>
   <v>       0.74991672       0.00096399       0.87445677 </v>
   <v>       0.75956954       0.50076234       0.37889380 </v>
   <v>       0.74961695       0.49908520       0.87484053 </v>
   <v>       0.00030277       0.99987745       0.00040162 </v>
   <v>       0.00035975       0.99984202       0.49949149 </v>
   <v>       0.00013388       0.50004691       0.99931900 </v>
   <v>       0.24928514       0.74838493       0.49926068 </v>
   <v>       0.50004525       0.99963888       0.99876289 </v>
   <v>       0.50008426       0.99968601       0.50127269 </v>
   <v>       0.25003640       0.25060732       0.00189382 </v>
   <v>       0.24878365       0.25177292       0.49777579 </v>
   <v>       0.99978540       0.50001769       0.74839218 </v>
   <v>       0.75290718       0.75289313       0.25003589 </v>
   <v>       0.50025877       0.49769682       0.00119017 </v>
   <v>       0.75111181       0.25197878       0.49867801 </v>
   <v>       0.75007231       0.74998635       0.00006834 </v>
   <v>       0.75146531       0.74895802       0.49981774 </v>
   <v>       0.50040272       0.49764727       0.49799607 </v>
   <v>       0.75045646       0.24940941       0.74976269 </v>
   <v>       0.25080972       0.74963230       0.74973979 </v>
   <v>       0.50050031       0.00617217       0.25004851 </v>
   <v>       0.74979894       0.25055553       0.00107319 </v>
   <v>       0.00043783       0.49934747       0.25127710 </v>
   <v>       0.74966810       0.74923047       0.74976725 </v>
   <v>       0.99970048       0.99672002       0.25027114 </v>
   <v>       0.00025771       0.00062130       0.74966982 </v>
   <v>       0.50013330       0.99913475       0.75000129 </v>
   <v>       0.24770225       0.75221391       0.25007103 </v>
   <v>       0.25023774       0.74971910       0.00054448 </v>
   <v>       0.24927122       0.24973396       0.74977600 </v>
   <v>       0.49984459       0.50099487       0.74941282 </v>
   <v>       0.23495649       0.24030674       0.25006771 </v>
   <v>       0.00051812       0.50017091       0.50073342 </v>
   <v>       0.49576694       0.52596603       0.25043091 </v>
   <v>       0.75862904       0.23597341       0.25007717 </v>
   <v>       0.09995795       0.14155778       0.25017141 </v>
   <v>       0.10932649       0.14078385       0.75001734 </v>
   <v>       0.10609753       0.64456602       0.24946186 </v>
   <v>       0.11020630       0.64140095       0.75063135 </v>
   <v>       0.14069338       0.61294774       0.50042898 </v>
   <v>       0.60961305       0.13997637       0.75049598 </v>
   <v>       0.34948511       0.60523243       0.25029959 </v>
   <v>       0.60829489       0.64073146       0.75039984 </v>
   <v>       0.61079865       0.64537429       0.24960828 </v>
   <v>       0.39075472       0.36046176       0.75029231 </v>
   <v>       0.89007283       0.35928481       0.75072442 </v>
   <v>       0.39184647       0.85865899       0.75056510 </v>
   <v>       0.88092392       0.36521478       0.24915971 </v>
   <v>       0.24722673       0.75474141       0.37430886 </v>
   <v>       0.89459009       0.85574880       0.24997778 </v>
   <v>       0.89070327       0.85884742       0.74995403 </v>
   <v>       0.75132321       0.24800514       0.87528972 </v>
   <v>       0.35985418       0.10926096       0.75055225 </v>
   <v>       0.14062486       0.39023523       0.75074363 </v>
   <v>       0.35938005       0.60830561       0.75001514 </v>
   <v>       0.85667405       0.10053486       0.24971665 </v>
   <v>       0.85950851       0.10833071       0.75038820 </v>
   <v>       0.85710878       0.61058431       0.24936963 </v>
   <v>       0.85890415       0.60939734       0.75078806 </v>
   <v>       0.14309825       0.39327125       0.24928628 </v>
   <v>       0.39092539       0.86108881       0.24958097 </v>
   <v>       0.25560909       0.74642609       0.87604977 </v>
   <v>       0.14165011       0.89011898       0.75029505 </v>
   <v>       0.64275514       0.89642342       0.24961923 </v>
   <v>       0.63939279       0.39053127       0.74998255 </v>
   <v>       0.50570831       0.46704350       0.36171167 </v>
   <v>       0.64158967       0.89044831       0.75050873 </v>
   <v>       0.36053893       0.39059969       0.99877095 </v>
   <v>       0.36184830       0.38987575       0.50147928 </v>
   <v>       0.36121495       0.88875352       0.00026084 </v>
   <v>       0.85989246       0.39027476       0.99937427 </v>
   <v>       0.86012155       0.38742536       0.50092347 </v>
   <v>       0.86011758       0.88975294       0.99755724 </v>
   <v>       0.86063800       0.88935223       0.50255636 </v>
   <v>       0.14020610       0.11107806       0.00388337 </v>
   <v>       0.13968814       0.11135340       0.49599156 </v>
   <v>       0.14031067       0.61035600       0.99973617 </v>
   <v>       0.36122973       0.11560938       0.24948678 </v>
   <v>       0.63937047       0.11031433       0.00115624 </v>
   <v>       0.63856612       0.11089361       0.49884003 </v>
   <v>       0.63830313       0.60828325       0.00760310 </v>
   <v>       0.63716510       0.60899479       0.49245104 </v>
   <v>       0.10985167       0.35975854       0.00098777 </v>
   <v>       0.11266202       0.35952105       0.49894240 </v>
   <v>       0.11093271       0.86002133       0.99777987 </v>
   <v>       0.11159916       0.86132783       0.50235377 </v>
   <v>       0.60937330       0.35954235       0.99582110 </v>
   <v>       0.60990647       0.36007376       0.50453153 </v>
   <v>       0.61007126       0.85976454       0.99920224 </v>
   <v>       0.61070900       0.86068786       0.50088295 </v>
   <v>       0.38923559       0.13846616       0.99857270 </v>
   <v>       0.38871248       0.13759283       0.50165397 </v>
   <v>       0.39154529       0.63675777       0.01024379 </v>
   <v>       0.39128253       0.63641636       0.48982017 </v>
   <v>       0.88911996       0.14019084       0.00341338 </v>
   <v>       0.88850110       0.13875658       0.49637741 </v>
   <v>       0.88888049       0.63956940       0.00075170 </v>
   <v>       0.88623424       0.63956579       0.49919016 </v>
   <v>       0.99941925       0.99566331       0.12461350 </v>
   <v>       0.00110228       0.00323442       0.62475900 </v>
   <v>       0.99968775       0.50042862       0.12413395 </v>
   <v>       0.49982204       0.50505584       0.87715758 </v>
   <v>       0.50046119       0.99961193       0.12433964 </v>
   <v>       0.50082845       0.99974301       0.62570187 </v>
   <v>       0.50513157       0.46646894       0.13919788 </v>
   <v>       0.49988568       0.50517956       0.62313946 </v>
   <v>       0.99936307       0.99509598       0.37520304 </v>
   <v>       0.00122166       0.00304094       0.87538402 </v>
   <v>       0.99975569       0.50022789       0.37375373 </v>
   <v>       0.00054015       0.50064441       0.87544111 </v>
   <v>       0.14322488       0.89468271       0.24965171 </v>
   <v>       0.50089951       0.99978172       0.87508147 </v>
   <v>       0.24731660       0.75376323       0.12517344 </v>
   <v>       0.50035663       0.99956773       0.37510996 </v>
   <v>       0.26077352       0.25854290       0.37228475 </v>
   <v>       0.24925970       0.24939962       0.87568809 </v>
   <v>       0.75135758       0.24711148       0.62540768 </v>
   <v>       0.74301892       0.25988887       0.37324569 </v>
   <v>       0.60260665       0.15308868       0.24982619 </v>
   <v>       0.75068741       0.75560488       0.37468306 </v>
   <v>       0.74745670       0.74585622       0.87578155 </v>
   <v>       0.25979861       0.25837844       0.12704835 </v>
   <v>       0.24971268       0.24913827       0.62498082 </v>
   <v>       0.00046884       0.50058868       0.62664709 </v>
   <v>       0.25577708       0.74728358       0.62464222 </v>
   <v>       0.74295269       0.25978169       0.12621039 </v>
   <v>       0.36211838       0.88823933       0.49981249 </v>
   <v>       0.75133974       0.75546504       0.12474530 </v>
   <v>       0.74683937       0.74596795       0.62493272 </v>
  </varray>
 </structure>
</modeling>
