       N       E                     dE             d eps       ncg     rms          rms(c)
DAV:   1    -0.111767642612E+04   -0.11177E+04   -0.15421E-02 13240   0.288E-01    0.209E-02
RMM:   2    -0.111767642614E+04   -0.19994E-07   -0.11670E-05  6477   0.564E-03    0.331E-02
RMM:   3    -0.111767642636E+04   -0.21265E-06   -0.43564E-06  5171   0.390E-03    0.403E-03
RMM:   4    -0.111767642652E+04   -0.15968E-06   -0.19067E-06  3037   0.204E-03    0.246E-03
RMM:   5    -0.111767642658E+04   -0.68496E-07   -0.10900E-06  2756   0.215E-03    0.351E-03
RMM:   6    -0.111767642666E+04   -0.77707E-07   -0.61360E-07  2107   0.176E-03    0.122E-03
RMM:   7    -0.111767642669E+04   -0.25975E-07   -0.39065E-07  1969   0.184E-03    0.494E-04
RMM:   8    -0.111767642671E+04   -0.18175E-07   -0.14179E-07  1462   0.168E-03
   1 F= -.11176764E+04 E0= -.11176763E+04  d E =-.111768E+04  mag=    38.0016
       N       E                     dE             d eps       ncg     rms          rms(c)
DAV:   1    -0.111767655239E+04   -0.12570E-03   -0.27951E-01 12416   0.619E-01    0.206E-01
RMM:   2    -0.111767734841E+04   -0.79602E-03   -0.79234E-03 12319   0.119E-01    0.152E-01
RMM:   3    -0.111767736738E+04   -0.18963E-04   -0.37514E-04  9795   0.370E-02    0.883E-02
RMM:   4    -0.111767732488E+04    0.42499E-04   -0.10703E-04  7269   0.140E-02    0.502E-02
RMM:   5    -0.111767731465E+04    0.10226E-04   -0.54442E-05  7103   0.997E-03    0.382E-02
RMM:   6    -0.111767731587E+04   -0.12207E-05   -0.15846E-05  6784   0.674E-03    0.153E-02
RMM:   7    -0.111767731627E+04   -0.39543E-06   -0.67251E-06  5938   0.364E-03    0.901E-03
RMM:   8    -0.111767731645E+04   -0.18370E-06   -0.35382E-06  5207   0.326E-03
   2 F= -.11176773E+04 E0= -.11176772E+04  d E =-.889745E-03  mag=    38.0014
