<?xml version="1.0" encoding="ISO-8859-1"?>
<modeling>
 <generator>
  <i name="program" type="string">vasp </i>
  <i name="version" type="string">5.4.1  </i>
  <i name="subversion" type="string">05Feb16 (build Jan 25 2017 20:16:33) complex                          parallel </i>
  <i name="platform" type="string">BWXE6 </i>
  <i name="date" type="string">2019 07 01 </i>
  <i name="time" type="string">14:12:04 </i>
 </generator>
 <incar>
  <i type="string" name="SYSTEM"> STF</i>
  <i type="string" name="PREC">normal</i>
  <i type="string" name="ALGO"> Fast</i>
  <i type="int" name="ISPIN">     2</i>
  <i type="int" name="NELM">    40</i>
  <i type="int" name="NELMIN">     8</i>
  <i type="int" name="IBRION">     2</i>
  <i name="EDIFF">      0.00010000</i>
  <i name="EDIFFG">     -0.03000000</i>
  <i type="int" name="NSW">    30</i>
  <i type="int" name="ISIF">     3</i>
  <i name="ENCUT">    520.00000000</i>
  <i type="int" name="NBANDS">   768</i>
  <v name="MAGMOM">      0.60000000      0.60000000      0.60000000      0.60000000      0.60000000      0.60000000      0.60000000      0.60000000      0.60000000      0.60000000      0.60000000      0.60000000      0.60000000      0.60000000      0.60000000      0.60000000      0.60000000      0.60000000      0.60000000      0.60000000
      0.60000000      0.60000000      0.60000000      0.60000000      0.60000000      0.60000000      0.60000000      0.60000000      0.60000000      0.60000000      0.60000000      0.60000000      0.60000000      0.60000000      0.60000000      0.60000000      0.60000000      0.60000000      0.60000000      0.60000000
      0.60000000      0.60000000      0.60000000      0.60000000      0.60000000      0.60000000      0.60000000      0.60000000      0.60000000      0.60000000      0.60000000      0.60000000      0.60000000      0.60000000      0.60000000      0.60000000      5.00000000      5.00000000      5.00000000      5.00000000
      5.00000000      5.00000000      5.00000000      5.00000000      0.60000000      0.60000000      0.60000000      0.60000000      0.60000000      0.60000000      0.60000000      0.60000000      0.60000000      0.60000000      0.60000000      0.60000000      0.60000000      0.60000000      0.60000000      0.60000000
      0.60000000      0.60000000      0.60000000      0.60000000      0.60000000      0.60000000      0.60000000      0.60000000      0.60000000      0.60000000      0.60000000      0.60000000      0.60000000      0.60000000      0.60000000      0.60000000      0.60000000      0.60000000      0.60000000      0.60000000
      0.60000000      0.60000000      0.60000000      0.60000000      0.60000000      0.60000000      0.60000000      0.60000000      0.60000000      0.60000000      0.60000000      0.60000000      0.60000000      0.60000000      0.60000000      0.60000000      0.60000000      0.60000000      0.60000000      0.60000000
      0.60000000      0.60000000      0.60000000      0.60000000      0.60000000      0.60000000      0.60000000      0.60000000      0.60000000      0.60000000      0.60000000      0.60000000      0.60000000      0.60000000      0.60000000      0.60000000      0.60000000      0.60000000      0.60000000      0.60000000
      0.60000000      0.60000000      0.60000000      0.60000000      0.60000000      0.60000000      0.60000000      0.60000000      0.60000000      0.60000000      0.60000000      0.60000000      0.60000000      0.60000000      0.60000000      0.60000000</v>
  <i type="string" name="LREAL"> Auto</i>
  <i type="int" name="ISMEAR">     0</i>
  <i name="SIGMA">      0.05000000</i>
  <i type="int" name="LMAXMIX">     4</i>
  <v type="int" name="KPOINT_BSE">    -1     0     0     0</v>
  <i type="int" name="NELM">    40</i>
  <i type="logical" name="LDAU"> T  </i>
  <v type="int" name="LDAUTYPE">     2</v>
  <v type="int" name="LDAUL">     0     2     2     0</v>
  <v name="LDAUU">      0.00000000      3.00000000      5.00000000      0.00000000</v>
  <v name="LDAUJ">      0.00000000      0.00000000      0.00000000      0.00000000</v>
  <i type="int" name="LDAUPRINT">     1</i>
 </incar>
 <kpoints>
  <generation param="Monkhorst-Pack">
   <v type="int" name="divisions">       2        2        2 </v>
   <v name="usershift">      0.00000000       0.00000000       0.00000000 </v>
   <v name="genvec1">      0.50000000       0.00000000       0.00000000 </v>
   <v name="genvec2">     -0.00000000       0.50000000      -0.00000000 </v>
   <v name="genvec3">      0.00000000       0.00000000       0.50000000 </v>
   <v name="shift">      0.50000000       0.50000000       0.50000000 </v>
  </generation>
  <varray name="kpointlist" >
   <v>       0.25000000       0.25000000       0.25000000 </v>
   <v>      -0.25000000       0.25000000       0.25000000 </v>
   <v>       0.25000000      -0.25000000       0.25000000 </v>
   <v>      -0.25000000      -0.25000000       0.25000000 </v>
  </varray>
  <varray name="weights" >
   <v>       0.25000000 </v>
   <v>       0.25000000 </v>
   <v>       0.25000000 </v>
   <v>       0.25000000 </v>
  </varray>
 </kpoints>
 <parameters>
  <separator name="general" >
   <i type="string" name="SYSTEM">STF</i>
   <i type="logical" name="LCOMPAT"> F  </i>
  </separator>
  <separator name="electronic" >
   <i type="string" name="PREC">normal</i>
   <i name="ENMAX">    520.00000000</i>
   <i name="ENAUG">    605.39200000</i>
   <i name="EDIFF">      0.00010000</i>
   <i type="int" name="IALGO">    68</i>
   <i type="int" name="IWAVPR">    11</i>
   <i type="int" name="NBANDS">   768</i>
   <i name="NELECT">   1032.00000000</i>
   <i type="int" name="TURBO">     0</i>
   <i type="int" name="IRESTART">     0</i>
   <i type="int" name="NREBOOT">     0</i>
   <i type="int" name="NMIN">     0</i>
   <i name="EREF">      0.00000000</i>
   <separator name="electronic smearing" >
    <i type="int" name="ISMEAR">     0</i>
    <i name="SIGMA">      0.05000000</i>
    <i name="KSPACING">      0.50000000</i>
    <i type="logical" name="KGAMMA"> T  </i>
   </separator>
   <separator name="electronic projectors" >
    <i type="logical" name="LREAL"> T  </i>
    <v name="ROPT">     -0.00050000     -0.00050000     -0.00050000     -0.00050000</v>
    <i type="int" name="LMAXPAW">  -100</i>
    <i type="int" name="LMAXMIX">     4</i>
    <i type="logical" name="NLSPLINE"> F  </i>
   </separator>
   <separator name="electronic startup" >
    <i type="int" name="ISTART">     1</i>
    <i type="int" name="ICHARG">     0</i>
    <i type="int" name="INIWAV">     1</i>
   </separator>
   <separator name="electronic spin" >
    <i type="int" name="ISPIN">     2</i>
    <i type="logical" name="LNONCOLLINEAR"> F  </i>
    <v name="MAGMOM">      0.60000000      0.60000000      0.60000000      0.60000000      0.60000000      0.60000000      0.60000000      0.60000000      0.60000000      0.60000000      0.60000000      0.60000000      0.60000000      0.60000000      0.60000000      0.60000000      0.60000000      0.60000000      0.60000000      0.60000000
      0.60000000      0.60000000      0.60000000      0.60000000      0.60000000      0.60000000      0.60000000      0.60000000      0.60000000      0.60000000      0.60000000      0.60000000      0.60000000      0.60000000      0.60000000      0.60000000      0.60000000      0.60000000      0.60000000      0.60000000
      0.60000000      0.60000000      0.60000000      0.60000000      0.60000000      0.60000000      0.60000000      0.60000000      0.60000000      0.60000000      0.60000000      0.60000000      0.60000000      0.60000000      0.60000000      0.60000000      5.00000000      5.00000000      5.00000000      5.00000000
      5.00000000      5.00000000      5.00000000      5.00000000      0.60000000      0.60000000      0.60000000      0.60000000      0.60000000      0.60000000      0.60000000      0.60000000      0.60000000      0.60000000      0.60000000      0.60000000      0.60000000      0.60000000      0.60000000      0.60000000
      0.60000000      0.60000000      0.60000000      0.60000000      0.60000000      0.60000000      0.60000000      0.60000000      0.60000000      0.60000000      0.60000000      0.60000000      0.60000000      0.60000000      0.60000000      0.60000000      0.60000000      0.60000000      0.60000000      0.60000000
      0.60000000      0.60000000      0.60000000      0.60000000      0.60000000      0.60000000      0.60000000      0.60000000      0.60000000      0.60000000      0.60000000      0.60000000      0.60000000      0.60000000      0.60000000      0.60000000      0.60000000      0.60000000      0.60000000      0.60000000
      0.60000000      0.60000000      0.60000000      0.60000000      0.60000000      0.60000000      0.60000000      0.60000000      0.60000000      0.60000000      0.60000000      0.60000000      0.60000000      0.60000000      0.60000000      0.60000000      0.60000000      0.60000000      0.60000000      0.60000000
      0.60000000      0.60000000      0.60000000      0.60000000      0.60000000      0.60000000      0.60000000      0.60000000      0.60000000      0.60000000      0.60000000      0.60000000      0.60000000      0.60000000      0.60000000      0.60000000</v>
    <i name="NUPDOWN">     -1.00000000</i>
    <i type="logical" name="LSORBIT"> F  </i>
    <v name="SAXIS">      0.00000000      0.00000000      1.00000000</v>
    <i type="logical" name="LSPIRAL"> F  </i>
    <v name="QSPIRAL">      0.00000000      0.00000000      0.00000000</v>
    <i type="logical" name="LZEROZ"> F  </i>
   </separator>
   <separator name="electronic exchange-correlation" >
    <i type="logical" name="LASPH"> F  </i>
    <i type="logical" name="LMETAGGA"> F  </i>
   </separator>
   <separator name="electronic convergence" >
    <i type="int" name="NELM">    40</i>
    <i type="int" name="NELMDL">     0</i>
    <i type="int" name="NELMIN">     8</i>
    <i name="ENINI">    520.00000000</i>
    <separator name="electronic convergence detail" >
     <i type="logical" name="LDIAG"> T  </i>
     <i type="logical" name="LSUBROT"> F  </i>
     <i name="WEIMIN">      0.00100000</i>
     <i name="EBREAK">      0.00000003</i>
     <i name="DEPER">      0.30000000</i>
     <i type="int" name="NRMM">     4</i>
     <i name="TIME">      0.40000000</i>
    </separator>
   </separator>
   <separator name="electronic mixer" >
    <i name="AMIX">      0.40000000</i>
    <i name="BMIX">      1.00000000</i>
    <i name="AMIN">      0.10000000</i>
    <i name="AMIX_MAG">      1.60000000</i>
    <i name="BMIX_MAG">      1.00000000</i>
    <separator name="electronic mixer details" >
     <i type="int" name="IMIX">     4</i>
     <i type="logical" name="MIXFIRST"> F  </i>
     <i type="int" name="MAXMIX">   -45</i>
     <i name="WC">    100.00000000</i>
     <i type="int" name="INIMIX">     1</i>
     <i type="int" name="MIXPRE">     1</i>
     <i type="int" name="MREMOVE">     5</i>
    </separator>
   </separator>
   <separator name="electronic dipolcorrection" >
    <i type="logical" name="LDIPOL"> F  </i>
    <i type="logical" name="LMONO"> F  </i>
    <i type="int" name="IDIPOL">     0</i>
    <i name="EPSILON">      1.00000000</i>
    <v name="DIPOL">   -100.00000000   -100.00000000   -100.00000000</v>
    <i name="EFIELD">      0.00000000</i>
   </separator>
  </separator>
  <separator name="grids" >
   <i type="int" name="NGX">    64</i>
   <i type="int" name="NGY">    64</i>
   <i type="int" name="NGZ">    90</i>
   <i type="int" name="NGXF">   128</i>
   <i type="int" name="NGYF">   128</i>
   <i type="int" name="NGZF">   180</i>
   <i type="logical" name="ADDGRID"> F  </i>
  </separator>
  <separator name="ionic" >
   <i type="int" name="NSW">    30</i>
   <i type="int" name="IBRION">     2</i>
   <i type="int" name="ISIF">     3</i>
   <i name="PSTRESS">      0.00000000</i>
   <i name="EDIFFG">     -0.03000000</i>
   <i type="int" name="NFREE">     1</i>
   <i name="POTIM">      0.50000000</i>
   <i name="SMASS">     -3.00000000</i>
   <i name="SCALEE">      1.00000000</i>
  </separator>
  <separator name="ionic md" >
   <i name="TEBEG">      0.00010000</i>
   <i name="TEEND">      0.00010000</i>
   <i type="int" name="NBLOCK">     1</i>
   <i type="int" name="KBLOCK">    30</i>
   <i type="int" name="NPACO">   256</i>
   <i name="APACO">     16.00000000</i>
  </separator>
  <separator name="symmetry" >
   <i type="int" name="ISYM">     2</i>
   <i name="SYMPREC">      0.00001000</i>
  </separator>
  <separator name="dos" >
   <i type="logical" name="LORBIT"> F  </i>
   <v name="RWIGS">     -1.00000000     -1.00000000     -1.00000000     -1.00000000</v>
   <i type="int" name="NEDOS">   301</i>
   <i name="EMIN">     10.00000000</i>
   <i name="EMAX">    -10.00000000</i>
   <i name="EFERMI">      0.00000000</i>
  </separator>
  <separator name="writing" >
   <i type="int" name="NWRITE">     2</i>
   <i type="logical" name="LWAVE"> T  </i>
   <i type="logical" name="LCHARG"> T  </i>
   <i type="logical" name="LPARD"> F  </i>
   <i type="logical" name="LVTOT"> F  </i>
   <i type="logical" name="LVHAR"> F  </i>
   <i type="logical" name="LELF"> F  </i>
   <i type="logical" name="LOPTICS"> F  </i>
   <v name="STM">      0.00000000      0.00000000      0.00000000      0.00000000      0.00000000      0.00000000      0.00000000</v>
  </separator>
  <separator name="performance" >
   <i type="int" name="NPAR">     2</i>
   <i type="int" name="NSIM">     4</i>
   <i type="int" name="NBLK">    -1</i>
   <i type="logical" name="LPLANE"> T  </i>
   <i type="logical" name="LSCALAPACK"> T  </i>
   <i type="logical" name="LSCAAWARE"> F  </i>
   <i type="logical" name="LSCALU"> F  </i>
   <i type="logical" name="LASYNC"> F  </i>
   <i type="logical" name="LORBITALREAL"> F  </i>
  </separator>
  <separator name="miscellaneous" >
   <i type="int" name="IDIOT">     3</i>
   <i type="logical" name="LMUSIC"> F  </i>
   <v name="POMASS">     87.62000000     47.88000000     55.84700000     16.00000000</v>
   <v name="DARWINR">      0.00000000      0.00000000      0.00000000      0.00000000</v>
   <v name="DARWINV">      1.00000000      1.00000000      1.00000000      1.00000000</v>
   <i type="logical" name="LCORR"> T  </i>
  </separator>
  <i type="logical" name="GGA_COMPAT"> T  </i>
  <i type="logical" name="LBERRY"> F  </i>
  <i type="int" name="ICORELEVEL">     0</i>
  <i type="logical" name="LDAU"> T  </i>
  <v type="int" name="LDAUTYPE">     2</v>
  <v type="int" name="LDAUL">     0</v>
  <v name="LDAUU">      0.00000000</v>
  <v name="LDAUJ">      0.00000000</v>
  <i type="int" name="LDAUPRINT">     1</i>
  <i type="int" name="I_CONSTRAINED_M">     0</i>
  <separator name="electronic exchange-correlation" >
   <i type="string" name="GGA">--</i>
   <i type="int" name="VOSKOWN">     0</i>
   <i type="logical" name="LHFCALC"> F  </i>
   <i type="string" name="PRECFOCK"></i>
   <i type="logical" name="LSYMGRAD"> F  </i>
   <i type="logical" name="LHFONE"> F  </i>
   <i type="logical" name="LRHFCALC"> F  </i>
   <i type="logical" name="LTHOMAS"> F  </i>
   <i type="logical" name="LMODELHF"> F  </i>
   <i name="ENCUT4O">     -1.00000000</i>
   <i type="int" name="EXXOEP">     0</i>
   <i type="int" name="FOURORBIT">     0</i>
   <i name="AEXX">      0.00000000</i>
   <i name="HFALPHA">      0.00000000</i>
   <i name="MCALPHA">      0.00000000</i>
   <i name="ALDAX">      1.00000000</i>
   <i name="AGGAX">      1.00000000</i>
   <i name="ALDAC">      1.00000000</i>
   <i name="AGGAC">      1.00000000</i>
   <i type="int" name="NKREDX">     1</i>
   <i type="int" name="NKREDY">     1</i>
   <i type="int" name="NKREDZ">     1</i>
   <i type="logical" name="SHIFTRED"> F  </i>
   <i type="logical" name="ODDONLY"> F  </i>
   <i type="logical" name="EVENONLY"> F  </i>
   <i type="int" name="LMAXFOCK">     0</i>
   <i type="int" name="NMAXFOCKAE">     0</i>
   <i type="logical" name="LFOCKAEDFT"> F  </i>
   <i name="HFSCREEN">      0.00000000</i>
   <i name="HFSCREENC">      0.00000000</i>
   <i type="int" name="NBANDSGWLOW">     0</i>
  </separator>
  <separator name="vdW DFT" >
   <i type="logical" name="LUSE_VDW"> F  </i>
   <i name="Zab_VDW">     -0.84910000</i>
   <i name="PARAM1">      0.12340000</i>
   <i name="PARAM2">      1.00000000</i>
   <i name="PARAM3">      0.00000000</i>
  </separator>
  <separator name="model GW" >
   <i type="int" name="MODEL_GW">     0</i>
   <i name="MODEL_EPS0">      7.72176812</i>
   <i name="MODEL_ALPHA">      1.00000000</i>
  </separator>
  <separator name="linear response parameters" >
   <i type="logical" name="LEPSILON"> F  </i>
   <i type="logical" name="LRPA"> F  </i>
   <i type="logical" name="LNABLA"> F  </i>
   <i type="logical" name="LVEL"> F  </i>
   <i type="int" name="KINTER">     0</i>
   <i name="CSHIFT">      0.10000000</i>
   <i name="OMEGAMAX">     -1.00000000</i>
   <i name="DEG_THRESHOLD">      0.00200000</i>
  </separator>
  <separator name="orbital magnetization" >
   <i type="logical" name="NUCIND"> F  </i>
   <v name="MAGPOS">      0.00000000      0.00000000      0.00000000</v>
   <i type="logical" name="LNICSALL"> T  </i>
   <i type="logical" name="ORBITALMAG"> F  </i>
   <i type="logical" name="LMAGBLOCH"> F  </i>
   <i type="logical" name="LCHIMAG"> F  </i>
   <i type="logical" name="LGAUGE"> T  </i>
   <i type="int" name="MAGATOM">     0</i>
   <v name="MAGDIPOL">      0.00000000      0.00000000      0.00000000</v>
   <v name="AVECCONST">      0.00000000      0.00000000      0.00000000</v>
  </separator>
  <separator name="response functions" >
   <i type="logical" name="LADDER"> F  </i>
   <i type="logical" name="LFXC"> F  </i>
   <i type="logical" name="LHARTREE"> T  </i>
   <i type="int" name="IBSE">     0</i>
   <v type="int" name="KPOINT">    -1     0     0     0</v>
   <i type="logical" name="LTCTE"> F  </i>
   <i type="logical" name="LTETE"> F  </i>
   <i type="logical" name="LTRIPLET"> F  </i>
   <i type="logical" name="LFXCEPS"> F  </i>
   <i type="logical" name="LFXHEG"> F  </i>
   <i type="int" name="NATURALO">     0</i>
   <i type="logical" name="L2ORDER"> F  </i>
   <i type="logical" name="LUSEW"> F  </i>
   <i name="ENCUTGW">     -2.00000000</i>
   <i name="ENCUTGWSOFT">     -2.00000000</i>
   <i name="ENCUTLF">     -1.00000000</i>
   <i type="int" name="LMAXMP2">    -1</i>
   <i name="SCISSOR">      0.00000000</i>
   <i type="int" name="NOMEGA">     0</i>
   <i type="int" name="NOMEGAR">     0</i>
   <i type="int" name="NBANDSGW">    -1</i>
   <i type="int" name="NBANDSO">    -1</i>
   <i type="int" name="NBANDSV">    -1</i>
   <i type="int" name="NELM">    40</i>
   <i type="int" name="NELMHF">     1</i>
   <i type="int" name="DIM">     3</i>
   <i type="int" name="ANTIRES">     0</i>
   <i name="OMEGAMAX">    -30.00000000</i>
   <i name="OMEGAMIN">    -30.00000000</i>
   <i name="OMEGATL">   -200.00000000</i>
   <i type="int" name="OMEGAGRID">     0</i>
   <i name="CSHIFT">     -0.10000000</i>
   <i type="logical" name="SELFENERGY"> F  </i>
   <i type="logical" name="LSPECTRAL"> F  </i>
   <i type="logical" name="LSPECTRALGW"> F  </i>
   <i type="logical" name="LSINGLES"> F  </i>
   <i type="logical" name="LFERMIGW"> F  </i>
   <i type="logical" name="ODDONLYGW"> F  </i>
   <i type="logical" name="EVENONLYGW"> F  </i>
   <i type="int" name="NKREDLFX">     1</i>
   <i type="int" name="NKREDLFY">     1</i>
   <i type="int" name="NKREDLFZ">     1</i>
   <i type="int" name="MAXMEM">  1800</i>
   <i type="int" name="TELESCOPE">     0</i>
   <i type="int" name="TAUPAR">     1</i>
   <i type="int" name="OMEGAPAR">    -1</i>
   <i name="LAMBDA">      1.00000000</i>
  </separator>
  <separator name="External order field" >
   <i name="OFIELD_KAPPA">      0.00000000</i>
   <v name="OFIELD_K">      0.00000000      0.00000000      0.00000000</v>
   <i name="OFIELD_Q6_NEAR">      0.00000000</i>
   <i name="OFIELD_Q6_FAR">      0.00000000</i>
   <i name="OFIELD_A">      0.00000000</i>
  </separator>
 </parameters>
 <atominfo>
  <atoms>     156 </atoms>
  <types>       4 </types>
  <array name="atoms" >
   <dimension dim="1">ion</dimension>
   <field type="string">element</field>
   <field type="int">atomtype</field>
   <set>
    <rc><c>Sr</c><c>   1</c></rc>
    <rc><c>Sr</c><c>   1</c></rc>
    <rc><c>Sr</c><c>   1</c></rc>
    <rc><c>Sr</c><c>   1</c></rc>
    <rc><c>Sr</c><c>   1</c></rc>
    <rc><c>Sr</c><c>   1</c></rc>
    <rc><c>Sr</c><c>   1</c></rc>
    <rc><c>Sr</c><c>   1</c></rc>
    <rc><c>Sr</c><c>   1</c></rc>
    <rc><c>Sr</c><c>   1</c></rc>
    <rc><c>Sr</c><c>   1</c></rc>
    <rc><c>Sr</c><c>   1</c></rc>
    <rc><c>Sr</c><c>   1</c></rc>
    <rc><c>Sr</c><c>   1</c></rc>
    <rc><c>Sr</c><c>   1</c></rc>
    <rc><c>Sr</c><c>   1</c></rc>
    <rc><c>Sr</c><c>   1</c></rc>
    <rc><c>Sr</c><c>   1</c></rc>
    <rc><c>Sr</c><c>   1</c></rc>
    <rc><c>Sr</c><c>   1</c></rc>
    <rc><c>Sr</c><c>   1</c></rc>
    <rc><c>Sr</c><c>   1</c></rc>
    <rc><c>Sr</c><c>   1</c></rc>
    <rc><c>Sr</c><c>   1</c></rc>
    <rc><c>Sr</c><c>   1</c></rc>
    <rc><c>Sr</c><c>   1</c></rc>
    <rc><c>Sr</c><c>   1</c></rc>
    <rc><c>Sr</c><c>   1</c></rc>
    <rc><c>Sr</c><c>   1</c></rc>
    <rc><c>Sr</c><c>   1</c></rc>
    <rc><c>Sr</c><c>   1</c></rc>
    <rc><c>Sr</c><c>   1</c></rc>
    <rc><c>Ti</c><c>   2</c></rc>
    <rc><c>Ti</c><c>   2</c></rc>
    <rc><c>Ti</c><c>   2</c></rc>
    <rc><c>Ti</c><c>   2</c></rc>
    <rc><c>Ti</c><c>   2</c></rc>
    <rc><c>Ti</c><c>   2</c></rc>
    <rc><c>Ti</c><c>   2</c></rc>
    <rc><c>Ti</c><c>   2</c></rc>
    <rc><c>Ti</c><c>   2</c></rc>
    <rc><c>Ti</c><c>   2</c></rc>
    <rc><c>Ti</c><c>   2</c></rc>
    <rc><c>Ti</c><c>   2</c></rc>
    <rc><c>Ti</c><c>   2</c></rc>
    <rc><c>Ti</c><c>   2</c></rc>
    <rc><c>Ti</c><c>   2</c></rc>
    <rc><c>Ti</c><c>   2</c></rc>
    <rc><c>Ti</c><c>   2</c></rc>
    <rc><c>Ti</c><c>   2</c></rc>
    <rc><c>Ti</c><c>   2</c></rc>
    <rc><c>Ti</c><c>   2</c></rc>
    <rc><c>Ti</c><c>   2</c></rc>
    <rc><c>Ti</c><c>   2</c></rc>
    <rc><c>Ti</c><c>   2</c></rc>
    <rc><c>Ti</c><c>   2</c></rc>
    <rc><c>Fe</c><c>   3</c></rc>
    <rc><c>Fe</c><c>   3</c></rc>
    <rc><c>Fe</c><c>   3</c></rc>
    <rc><c>Fe</c><c>   3</c></rc>
    <rc><c>Fe</c><c>   3</c></rc>
    <rc><c>Fe</c><c>   3</c></rc>
    <rc><c>Fe</c><c>   3</c></rc>
    <rc><c>Fe</c><c>   3</c></rc>
    <rc><c>O </c><c>   4</c></rc>
    <rc><c>O </c><c>   4</c></rc>
    <rc><c>O </c><c>   4</c></rc>
    <rc><c>O </c><c>   4</c></rc>
    <rc><c>O </c><c>   4</c></rc>
    <rc><c>O </c><c>   4</c></rc>
    <rc><c>O </c><c>   4</c></rc>
    <rc><c>O </c><c>   4</c></rc>
    <rc><c>O </c><c>   4</c></rc>
    <rc><c>O </c><c>   4</c></rc>
    <rc><c>O </c><c>   4</c></rc>
    <rc><c>O </c><c>   4</c></rc>
    <rc><c>O </c><c>   4</c></rc>
    <rc><c>O </c><c>   4</c></rc>
    <rc><c>O </c><c>   4</c></rc>
    <rc><c>O </c><c>   4</c></rc>
    <rc><c>O </c><c>   4</c></rc>
    <rc><c>O </c><c>   4</c></rc>
    <rc><c>O </c><c>   4</c></rc>
    <rc><c>O </c><c>   4</c></rc>
    <rc><c>O </c><c>   4</c></rc>
    <rc><c>O </c><c>   4</c></rc>
    <rc><c>O </c><c>   4</c></rc>
    <rc><c>O </c><c>   4</c></rc>
    <rc><c>O </c><c>   4</c></rc>
    <rc><c>O </c><c>   4</c></rc>
    <rc><c>O </c><c>   4</c></rc>
    <rc><c>O </c><c>   4</c></rc>
    <rc><c>O </c><c>   4</c></rc>
    <rc><c>O </c><c>   4</c></rc>
    <rc><c>O </c><c>   4</c></rc>
    <rc><c>O </c><c>   4</c></rc>
    <rc><c>O </c><c>   4</c></rc>
    <rc><c>O </c><c>   4</c></rc>
    <rc><c>O </c><c>   4</c></rc>
    <rc><c>O </c><c>   4</c></rc>
    <rc><c>O </c><c>   4</c></rc>
    <rc><c>O </c><c>   4</c></rc>
    <rc><c>O </c><c>   4</c></rc>
    <rc><c>O </c><c>   4</c></rc>
    <rc><c>O </c><c>   4</c></rc>
    <rc><c>O </c><c>   4</c></rc>
    <rc><c>O </c><c>   4</c></rc>
    <rc><c>O </c><c>   4</c></rc>
    <rc><c>O </c><c>   4</c></rc>
    <rc><c>O </c><c>   4</c></rc>
    <rc><c>O </c><c>   4</c></rc>
    <rc><c>O </c><c>   4</c></rc>
    <rc><c>O </c><c>   4</c></rc>
    <rc><c>O </c><c>   4</c></rc>
    <rc><c>O </c><c>   4</c></rc>
    <rc><c>O </c><c>   4</c></rc>
    <rc><c>O </c><c>   4</c></rc>
    <rc><c>O </c><c>   4</c></rc>
    <rc><c>O </c><c>   4</c></rc>
    <rc><c>O </c><c>   4</c></rc>
    <rc><c>O </c><c>   4</c></rc>
    <rc><c>O </c><c>   4</c></rc>
    <rc><c>O </c><c>   4</c></rc>
    <rc><c>O </c><c>   4</c></rc>
    <rc><c>O </c><c>   4</c></rc>
    <rc><c>O </c><c>   4</c></rc>
    <rc><c>O </c><c>   4</c></rc>
    <rc><c>O </c><c>   4</c></rc>
    <rc><c>O </c><c>   4</c></rc>
    <rc><c>O </c><c>   4</c></rc>
    <rc><c>O </c><c>   4</c></rc>
    <rc><c>O </c><c>   4</c></rc>
    <rc><c>O </c><c>   4</c></rc>
    <rc><c>O </c><c>   4</c></rc>
    <rc><c>O </c><c>   4</c></rc>
    <rc><c>O </c><c>   4</c></rc>
    <rc><c>O </c><c>   4</c></rc>
    <rc><c>O </c><c>   4</c></rc>
    <rc><c>O </c><c>   4</c></rc>
    <rc><c>O </c><c>   4</c></rc>
    <rc><c>O </c><c>   4</c></rc>
    <rc><c>O </c><c>   4</c></rc>
    <rc><c>O </c><c>   4</c></rc>
    <rc><c>O </c><c>   4</c></rc>
    <rc><c>O </c><c>   4</c></rc>
    <rc><c>O </c><c>   4</c></rc>
    <rc><c>O </c><c>   4</c></rc>
    <rc><c>O </c><c>   4</c></rc>
    <rc><c>O </c><c>   4</c></rc>
    <rc><c>O </c><c>   4</c></rc>
    <rc><c>O </c><c>   4</c></rc>
    <rc><c>O </c><c>   4</c></rc>
    <rc><c>O </c><c>   4</c></rc>
    <rc><c>O </c><c>   4</c></rc>
    <rc><c>O </c><c>   4</c></rc>
    <rc><c>O </c><c>   4</c></rc>
   </set>
  </array>
  <array name="atomtypes" >
   <dimension dim="1">type</dimension>
   <field type="int">atomspertype</field>
   <field type="string">element</field>
   <field>mass</field>
   <field>valence</field>
   <field type="string">pseudopotential</field>
   <set>
    <rc><c>  32</c><c>Sr</c><c>     87.62000000</c><c>     10.00000000</c><c>  PAW_PBE Sr_sv 07Sep2000               </c></rc>
    <rc><c>  24</c><c>Ti</c><c>     47.88000000</c><c>      4.00000000</c><c>  PAW_PBE Ti 08Apr2002                  </c></rc>
    <rc><c>   8</c><c>Fe</c><c>     55.84700000</c><c>      8.00000000</c><c>  PAW_PBE Fe 06Sep2000                  </c></rc>
    <rc><c>  92</c><c>O </c><c>     16.00000000</c><c>      6.00000000</c><c>  PAW_PBE O 08Apr2002                   </c></rc>
   </set>
  </array>
 </atominfo>
 <structure name="initialpos" >
  <crystal>
   <varray name="basis" >
    <v>      11.24181845       0.01807702       0.01152738 </v>
    <v>       0.01808600      11.23224354       0.00596163 </v>
    <v>       0.01643152       0.00841731      15.89969272 </v>
   </varray>
   <i name="volume">   2007.65971191 </i>
   <varray name="rec_basis" >
    <v>       0.08895390      -0.00014318      -0.00009185 </v>
    <v>      -0.00014311       0.08902966      -0.00004698 </v>
    <v>      -0.00006444      -0.00003328       0.06289438 </v>
   </varray>
  </crystal>
  <varray name="positions" >
   <v>       0.00116444       0.25434270       0.12556225 </v>
   <v>       0.00476183       0.24968637       0.63070533 </v>
   <v>       0.99240214       0.74782582       0.12466667 </v>
   <v>       0.98340586       0.74964037       0.62991156 </v>
   <v>       0.49812977       0.24768745       0.12561546 </v>
   <v>       0.49635083       0.24427536       0.62849661 </v>
   <v>       0.50397936       0.75083407       0.12413666 </v>
   <v>       0.52179623       0.76051616       0.63166516 </v>
   <v>       0.00256646       0.25380348       0.36889124 </v>
   <v>       0.00143056       0.24891186       0.87638821 </v>
   <v>       0.98574392       0.74970121       0.36562105 </v>
   <v>       0.98758376       0.75068401       0.87552370 </v>
   <v>       0.49630240       0.24846986       0.36973552 </v>
   <v>       0.49745401       0.24108391       0.87669873 </v>
   <v>       0.51155028       0.75275828       0.36892216 </v>
   <v>       0.51294130       0.75930672       0.87860135 </v>
   <v>       0.25356613       0.00813669       0.12464948 </v>
   <v>       0.25265223       0.01222047       0.63007303 </v>
   <v>       0.24826814       0.49336202       0.12518097 </v>
   <v>       0.24234502       0.47641930       0.62981252 </v>
   <v>       0.74543967       0.00321175       0.12079618 </v>
   <v>       0.75215563       0.00003185       0.62809494 </v>
   <v>       0.75335809       0.49724597       0.12810065 </v>
   <v>       0.75618970       0.50369672       0.62835390 </v>
   <v>       0.24556331       0.01592846       0.36747423 </v>
   <v>       0.25062084       0.01196280       0.87799193 </v>
   <v>       0.24776869       0.49007370       0.36890916 </v>
   <v>       0.24120200       0.48335515       0.87633317 </v>
   <v>       0.75428650       0.00324729       0.36700462 </v>
   <v>       0.74933992       0.00036845       0.87572228 </v>
   <v>       0.75593603       0.49983087       0.37203038 </v>
   <v>       0.75608850       0.50029702       0.87569259 </v>
   <v>       0.00019224       0.00029465       0.00001572 </v>
   <v>       0.99509380       0.00578861       0.49983322 </v>
   <v>       0.00009237       0.50082052       0.00009268 </v>
   <v>       0.99979291       0.49892937       0.50024041 </v>
   <v>       0.51085845       0.00494173       0.49936248 </v>
   <v>       0.25331270       0.25067306       0.00004624 </v>
   <v>       0.25041182       0.25039624       0.49963961 </v>
   <v>       0.24910346       0.75031400       0.00673980 </v>
   <v>       0.23054453       0.75364055       0.48713861 </v>
   <v>       0.74524983       0.25277654       0.00031521 </v>
   <v>       0.75351938       0.25366374       0.49849590 </v>
   <v>       0.74685172       0.74939231       0.99845062 </v>
   <v>       0.74974536       0.74926955       0.50008474 </v>
   <v>       0.25024333       0.74910867       0.24969198 </v>
   <v>       0.25394512       0.74743913       0.75812585 </v>
   <v>       0.74976924       0.25071882       0.74960000 </v>
   <v>       0.74929915       0.74890802       0.24790728 </v>
   <v>       0.00013119       0.00301057       0.24685365 </v>
   <v>       0.00050003       0.99957047       0.75026135 </v>
   <v>       0.99904409       0.49920169       0.75003297 </v>
   <v>       0.49868248       0.00120766       0.24805740 </v>
   <v>       0.50165951       0.00088552       0.75233203 </v>
   <v>       0.49929880       0.49923538       0.25291175 </v>
   <v>       0.49656528       0.50508666       0.73977317 </v>
   <v>       0.50006027       0.99998317       0.99990775 </v>
   <v>       0.50146536       0.49980597       0.00966793 </v>
   <v>       0.50880745       0.48805396       0.49524582 </v>
   <v>       0.25000744       0.25187431       0.24823835 </v>
   <v>       0.24958800       0.24749481       0.75226582 </v>
   <v>       0.74964864       0.25136598       0.24981364 </v>
   <v>       0.75137250       0.75160394       0.75246620 </v>
   <v>       0.00221252       0.50114420       0.24869123 </v>
   <v>       0.11862044       0.12988963       0.24849738 </v>
   <v>       0.11914773       0.12630733       0.74888520 </v>
   <v>       0.11834330       0.63303563       0.25562532 </v>
   <v>       0.12807595       0.62993668       0.74645940 </v>
   <v>       0.61649597       0.12941351       0.25825736 </v>
   <v>       0.61874883       0.13423617       0.75232201 </v>
   <v>       0.61734316       0.63295599       0.25259965 </v>
   <v>       0.61403564       0.62903790       0.75940340 </v>
   <v>       0.38193505       0.37087602       0.25209639 </v>
   <v>       0.38252889       0.37706294       0.75683525 </v>
   <v>       0.37984662       0.86529717       0.24226528 </v>
   <v>       0.38211105       0.86288984       0.74791587 </v>
   <v>       0.88583952       0.37286819       0.24589516 </v>
   <v>       0.87694708       0.37133111       0.74360848 </v>
   <v>       0.88130692       0.86710497       0.24651282 </v>
   <v>       0.88392523       0.87105443       0.74798255 </v>
   <v>       0.36805230       0.11858225       0.24820182 </v>
   <v>       0.37165105       0.11806551       0.74730555 </v>
   <v>       0.36592606       0.61877237       0.23471160 </v>
   <v>       0.37243909       0.61972520       0.78485759 </v>
   <v>       0.86937827       0.11709456       0.23478932 </v>
   <v>       0.86953564       0.12081944       0.73679450 </v>
   <v>       0.87030142       0.61688214       0.24845414 </v>
   <v>       0.87225210       0.62043717       0.74867923 </v>
   <v>       0.12877971       0.38367403       0.25040090 </v>
   <v>       0.12664437       0.37792768       0.75080850 </v>
   <v>       0.13286462       0.87862436       0.26561969 </v>
   <v>       0.13681836       0.87538237       0.76111490 </v>
   <v>       0.62950147       0.38413698       0.26664607 </v>
   <v>       0.62458710       0.38792094       0.75730763 </v>
   <v>       0.63148114       0.88065337       0.25287122 </v>
   <v>       0.63210909       0.88389947       0.74899133 </v>
   <v>       0.37142684       0.38454714       0.99173105 </v>
   <v>       0.36094058       0.38888270       0.50105635 </v>
   <v>       0.36404180       0.87711528       0.99146279 </v>
   <v>       0.34945552       0.82706178       0.54634099 </v>
   <v>       0.86895896       0.38387829       0.00390579 </v>
   <v>       0.85938228       0.39398560       0.50269079 </v>
   <v>       0.87006765       0.88133593       0.00455092 </v>
   <v>       0.85768116       0.89223645       0.50078055 </v>
   <v>       0.13200593       0.11771559       0.00097044 </v>
   <v>       0.13785976       0.10930409       0.49929762 </v>
   <v>       0.13436663       0.62277750       0.98208083 </v>
   <v>       0.16066807       0.60746366       0.51540253 </v>
   <v>       0.63382320       0.12065806       0.99640246 </v>
   <v>       0.64068725       0.10839294       0.49119516 </v>
   <v>       0.62781579       0.61772956       0.98735181 </v>
   <v>       0.63453402       0.61250145       0.49990867 </v>
   <v>       0.11851061       0.36954930       0.99697875 </v>
   <v>       0.11016561       0.36043592       0.50127895 </v>
   <v>       0.12217539       0.86582496       0.97725218 </v>
   <v>       0.10533699       0.85872345       0.48546951 </v>
   <v>       0.61729399       0.37248430       0.97893831 </v>
   <v>       0.61029109       0.35564624       0.49086961 </v>
   <v>       0.61970598       0.86831603       0.00175659 </v>
   <v>       0.60757669       0.85896226       0.49798322 </v>
   <v>       0.38099594       0.13188771       0.00339525 </v>
   <v>       0.38396551       0.12762644       0.50160062 </v>
   <v>       0.37986532       0.63312540       0.99388782 </v>
   <v>       0.88307249       0.13189153       0.01165374 </v>
   <v>       0.88891921       0.14115180       0.51439147 </v>
   <v>       0.88169326       0.63246700       0.00006322 </v>
   <v>       0.89393109       0.64246863       0.50131693 </v>
   <v>       0.02040425       0.98192647       0.12383408 </v>
   <v>       0.01485459       0.98468967       0.62360682 </v>
   <v>       0.01357245       0.51007668       0.12122414 </v>
   <v>       0.00135555       0.50140125       0.62473895 </v>
   <v>       0.50316704       0.99971308       0.12615816 </v>
   <v>       0.50670763       0.00284326       0.62301903 </v>
   <v>       0.51433277       0.49167645       0.12735204 </v>
   <v>       0.47985506       0.52281571       0.62273121 </v>
   <v>       0.98607987       0.01329328       0.37461837 </v>
   <v>       0.98693258       0.01107921       0.87443238 </v>
   <v>       0.00422049       0.50521473       0.37969686 </v>
   <v>       0.99436996       0.49750688       0.87281999 </v>
   <v>       0.47961841       0.98540766       0.37839439 </v>
   <v>       0.49863035       0.99973273       0.87358990 </v>
   <v>       0.47759685       0.52275022       0.37837879 </v>
   <v>       0.24991379       0.24958358       0.37539645 </v>
   <v>       0.24955619       0.24485362       0.87602501 </v>
   <v>       0.28046499       0.73548197       0.37637971 </v>
   <v>       0.77054280       0.24410846       0.37660904 </v>
   <v>       0.76604973       0.24472929       0.87261515 </v>
   <v>       0.75400983       0.74841523       0.37458128 </v>
   <v>       0.75523146       0.75763396       0.87619664 </v>
   <v>       0.25086268       0.25792315       0.12413569 </v>
   <v>       0.25154203       0.24994597       0.62453165 </v>
   <v>       0.23050143       0.75674826       0.12313228 </v>
   <v>       0.73008842       0.26325647       0.12408142 </v>
   <v>       0.73180906       0.25767860       0.62365688 </v>
   <v>       0.74320117       0.74283273       0.12479699 </v>
   <v>       0.74932829       0.74812318       0.62392516 </v>
  </varray>
 </structure>
 <calculation>
  <scstep>
   <time name="dav">  593.49  593.49</time>
   <time name="total">  600.67  600.73</time>
   <energy>
    <i name="alphaZ">   5621.14997422 </i>
    <i name="ewald"> -60837.24323226 </i>
    <i name="hartreedc"> -16674.63708594 </i>
    <i name="XCdc">   2962.03783993 </i>
    <i name="pawpsdc"> 112675.53104961 </i>
    <i name="pawaedc">-111574.77299295 </i>
    <i name="eentropy">     -0.00018751 </i>
    <i name="bandstr">  -7073.18958792 </i>
    <i name="atom">  73783.44779670 </i>
    <i name="e_fr_energy">  -1117.67642612 </i>
    <i name="e_wo_entrp">  -1117.67623862 </i>
    <i name="e_0_energy">  -1117.67633237 </i>
   </energy>
  </scstep>
  <scstep>
   <time name="diag">   64.53   64.53</time>
   <time name="diis">   60.04   60.03</time>
   <time name="orth">   33.38   33.38</time>
   <time name="total">  165.14  165.14</time>
   <energy>
    <i name="e_fr_energy">  -1117.67642614 </i>
    <i name="e_wo_entrp">  -1117.67624013 </i>
    <i name="e_0_energy">  -1117.67633314 </i>
   </energy>
  </scstep>
  <scstep>
   <time name="diag">   64.58   64.58</time>
   <time name="diis">   54.48   54.48</time>
   <time name="orth">   33.41   33.42</time>
   <time name="total">  159.67  159.71</time>
   <energy>
    <i name="e_fr_energy">  -1117.67642636 </i>
    <i name="e_wo_entrp">  -1117.67624003 </i>
    <i name="e_0_energy">  -1117.67633319 </i>
   </energy>
  </scstep>
  <scstep>
   <time name="diag">   64.65   64.65</time>
   <time name="diis">   47.12   47.13</time>
   <time name="orth">   33.37   33.36</time>
   <time name="total">  152.33  152.43</time>
   <energy>
    <i name="e_fr_energy">  -1117.67642652 </i>
    <i name="e_wo_entrp">  -1117.67624016 </i>
    <i name="e_0_energy">  -1117.67633334 </i>
   </energy>
  </scstep>
  <scstep>
   <time name="diag">   64.50   64.51</time>
   <time name="diis">   46.44   46.45</time>
   <time name="orth">   33.41   33.40</time>
   <time name="total">  151.53  151.57</time>
   <energy>
    <i name="e_fr_energy">  -1117.67642658 </i>
    <i name="e_wo_entrp">  -1117.67624005 </i>
    <i name="e_0_energy">  -1117.67633331 </i>
   </energy>
  </scstep>
  <scstep>
   <time name="diag">   64.51   64.52</time>
   <time name="diis">   44.39   44.39</time>
   <time name="orth">   33.42   33.42</time>
   <time name="total">  149.51  149.55</time>
   <energy>
    <i name="e_fr_energy">  -1117.67642666 </i>
    <i name="e_wo_entrp">  -1117.67624014 </i>
    <i name="e_0_energy">  -1117.67633340 </i>
   </energy>
  </scstep>
  <scstep>
   <time name="diag">   64.60   64.59</time>
   <time name="diis">   43.90   43.91</time>
   <time name="orth">   33.41   33.41</time>
   <time name="total">  149.07  149.10</time>
   <energy>
    <i name="e_fr_energy">  -1117.67642669 </i>
    <i name="e_wo_entrp">  -1117.67624018 </i>
    <i name="e_0_energy">  -1117.67633343 </i>
   </energy>
  </scstep>
  <scstep>
   <time name="diag">   64.63   64.65</time>
   <time name="diis">   42.25   42.27</time>
   <time name="orth">   33.41   33.40</time>
   <time name="total">  141.35  141.40</time>
   <energy>
    <i name="alphaZ">   5621.14997422 </i>
    <i name="ewald"> -60837.24323226 </i>
    <i name="hartreedc"> -16674.64893917 </i>
    <i name="XCdc">   2962.03761636 </i>
    <i name="pawpsdc"> 112675.03232638 </i>
    <i name="pawaedc">-111574.27717568 </i>
    <i name="eentropy">     -0.00018648 </i>
    <i name="bandstr">  -7073.17460678 </i>
    <i name="atom">  73783.44779670 </i>
    <i name="e_fr_energy">  -1117.67642671 </i>
    <i name="e_wo_entrp">  -1117.67624022 </i>
    <i name="e_0_energy">  -1117.67633346 </i>
   </energy>
  </scstep>
  <structure>
   <crystal>
    <varray name="basis" >
     <v>      11.24181845       0.01807702       0.01152738 </v>
     <v>       0.01808600      11.23224354       0.00596163 </v>
     <v>       0.01643152       0.00841731      15.89969272 </v>
    </varray>
    <i name="volume">   2007.65971191 </i>
    <varray name="rec_basis" >
     <v>       0.08895390      -0.00014318      -0.00009185 </v>
     <v>      -0.00014311       0.08902966      -0.00004698 </v>
     <v>      -0.00006444      -0.00003328       0.06289438 </v>
    </varray>
   </crystal>
   <varray name="positions" >
    <v>       0.00116444       0.25434270       0.12556225 </v>
    <v>       0.00476183       0.24968637       0.63070533 </v>
    <v>       0.99240214       0.74782582       0.12466667 </v>
    <v>       0.98340586       0.74964037       0.62991156 </v>
    <v>       0.49812977       0.24768745       0.12561546 </v>
    <v>       0.49635083       0.24427536       0.62849661 </v>
    <v>       0.50397936       0.75083407       0.12413666 </v>
    <v>       0.52179623       0.76051616       0.63166516 </v>
    <v>       0.00256646       0.25380348       0.36889124 </v>
    <v>       0.00143056       0.24891186       0.87638821 </v>
    <v>       0.98574392       0.74970121       0.36562105 </v>
    <v>       0.98758376       0.75068401       0.87552370 </v>
    <v>       0.49630240       0.24846986       0.36973552 </v>
    <v>       0.49745401       0.24108391       0.87669873 </v>
    <v>       0.51155028       0.75275828       0.36892216 </v>
    <v>       0.51294130       0.75930672       0.87860135 </v>
    <v>       0.25356613       0.00813669       0.12464948 </v>
    <v>       0.25265223       0.01222047       0.63007303 </v>
    <v>       0.24826814       0.49336202       0.12518097 </v>
    <v>       0.24234502       0.47641930       0.62981252 </v>
    <v>       0.74543967       0.00321175       0.12079618 </v>
    <v>       0.75215563       0.00003185       0.62809494 </v>
    <v>       0.75335809       0.49724597       0.12810065 </v>
    <v>       0.75618970       0.50369672       0.62835390 </v>
    <v>       0.24556331       0.01592846       0.36747423 </v>
    <v>       0.25062084       0.01196280       0.87799193 </v>
    <v>       0.24776869       0.49007370       0.36890916 </v>
    <v>       0.24120200       0.48335515       0.87633317 </v>
    <v>       0.75428650       0.00324729       0.36700462 </v>
    <v>       0.74933992       0.00036845       0.87572228 </v>
    <v>       0.75593603       0.49983087       0.37203038 </v>
    <v>       0.75608850       0.50029702       0.87569259 </v>
    <v>       0.00019224       0.00029465       0.00001572 </v>
    <v>       0.99509380       0.00578861       0.49983322 </v>
    <v>       0.00009237       0.50082052       0.00009268 </v>
    <v>       0.99979291       0.49892937       0.50024041 </v>
    <v>       0.51085845       0.00494173       0.49936248 </v>
    <v>       0.25331270       0.25067306       0.00004624 </v>
    <v>       0.25041182       0.25039624       0.49963961 </v>
    <v>       0.24910346       0.75031400       0.00673980 </v>
    <v>       0.23054453       0.75364055       0.48713861 </v>
    <v>       0.74524983       0.25277654       0.00031521 </v>
    <v>       0.75351938       0.25366374       0.49849590 </v>
    <v>       0.74685172       0.74939231       0.99845062 </v>
    <v>       0.74974536       0.74926955       0.50008474 </v>
    <v>       0.25024333       0.74910867       0.24969198 </v>
    <v>       0.25394512       0.74743913       0.75812585 </v>
    <v>       0.74976924       0.25071882       0.74960000 </v>
    <v>       0.74929915       0.74890802       0.24790728 </v>
    <v>       0.00013119       0.00301057       0.24685365 </v>
    <v>       0.00050003       0.99957047       0.75026135 </v>
    <v>       0.99904409       0.49920169       0.75003297 </v>
    <v>       0.49868248       0.00120766       0.24805740 </v>
    <v>       0.50165951       0.00088552       0.75233203 </v>
    <v>       0.49929880       0.49923538       0.25291175 </v>
    <v>       0.49656528       0.50508666       0.73977317 </v>
    <v>       0.50006027       0.99998317       0.99990775 </v>
    <v>       0.50146536       0.49980597       0.00966793 </v>
    <v>       0.50880745       0.48805396       0.49524582 </v>
    <v>       0.25000744       0.25187431       0.24823835 </v>
    <v>       0.24958800       0.24749481       0.75226582 </v>
    <v>       0.74964864       0.25136598       0.24981364 </v>
    <v>       0.75137250       0.75160394       0.75246620 </v>
    <v>       0.00221252       0.50114420       0.24869123 </v>
    <v>       0.11862044       0.12988963       0.24849738 </v>
    <v>       0.11914773       0.12630733       0.74888520 </v>
    <v>       0.11834330       0.63303563       0.25562532 </v>
    <v>       0.12807595       0.62993668       0.74645940 </v>
    <v>       0.61649597       0.12941351       0.25825736 </v>
    <v>       0.61874883       0.13423617       0.75232201 </v>
    <v>       0.61734316       0.63295599       0.25259965 </v>
    <v>       0.61403564       0.62903790       0.75940340 </v>
    <v>       0.38193505       0.37087602       0.25209639 </v>
    <v>       0.38252889       0.37706294       0.75683525 </v>
    <v>       0.37984662       0.86529717       0.24226528 </v>
    <v>       0.38211105       0.86288984       0.74791587 </v>
    <v>       0.88583952       0.37286819       0.24589516 </v>
    <v>       0.87694708       0.37133111       0.74360848 </v>
    <v>       0.88130692       0.86710497       0.24651282 </v>
    <v>       0.88392523       0.87105443       0.74798255 </v>
    <v>       0.36805230       0.11858225       0.24820182 </v>
    <v>       0.37165105       0.11806551       0.74730555 </v>
    <v>       0.36592606       0.61877237       0.23471160 </v>
    <v>       0.37243909       0.61972520       0.78485759 </v>
    <v>       0.86937827       0.11709456       0.23478932 </v>
    <v>       0.86953564       0.12081944       0.73679450 </v>
    <v>       0.87030142       0.61688214       0.24845414 </v>
    <v>       0.87225210       0.62043717       0.74867923 </v>
    <v>       0.12877971       0.38367403       0.25040090 </v>
    <v>       0.12664437       0.37792768       0.75080850 </v>
    <v>       0.13286462       0.87862436       0.26561969 </v>
    <v>       0.13681836       0.87538237       0.76111490 </v>
    <v>       0.62950147       0.38413698       0.26664607 </v>
    <v>       0.62458710       0.38792094       0.75730763 </v>
    <v>       0.63148114       0.88065337       0.25287122 </v>
    <v>       0.63210909       0.88389947       0.74899133 </v>
    <v>       0.37142684       0.38454714       0.99173105 </v>
    <v>       0.36094058       0.38888270       0.50105635 </v>
    <v>       0.36404180       0.87711528       0.99146279 </v>
    <v>       0.34945552       0.82706178       0.54634099 </v>
    <v>       0.86895896       0.38387829       0.00390579 </v>
    <v>       0.85938228       0.39398560       0.50269079 </v>
    <v>       0.87006765       0.88133593       0.00455092 </v>
    <v>       0.85768116       0.89223645       0.50078055 </v>
    <v>       0.13200593       0.11771559       0.00097044 </v>
    <v>       0.13785976       0.10930409       0.49929762 </v>
    <v>       0.13436663       0.62277750       0.98208083 </v>
    <v>       0.16066807       0.60746366       0.51540253 </v>
    <v>       0.63382320       0.12065806       0.99640246 </v>
    <v>       0.64068725       0.10839294       0.49119516 </v>
    <v>       0.62781579       0.61772956       0.98735181 </v>
    <v>       0.63453402       0.61250145       0.49990867 </v>
    <v>       0.11851061       0.36954930       0.99697875 </v>
    <v>       0.11016561       0.36043592       0.50127895 </v>
    <v>       0.12217539       0.86582496       0.97725218 </v>
    <v>       0.10533699       0.85872345       0.48546951 </v>
    <v>       0.61729399       0.37248430       0.97893831 </v>
    <v>       0.61029109       0.35564624       0.49086961 </v>
    <v>       0.61970598       0.86831603       0.00175659 </v>
    <v>       0.60757669       0.85896226       0.49798322 </v>
    <v>       0.38099594       0.13188771       0.00339525 </v>
    <v>       0.38396551       0.12762644       0.50160062 </v>
    <v>       0.37986532       0.63312540       0.99388782 </v>
    <v>       0.88307249       0.13189153       0.01165374 </v>
    <v>       0.88891921       0.14115180       0.51439147 </v>
    <v>       0.88169326       0.63246700       0.00006322 </v>
    <v>       0.89393109       0.64246863       0.50131693 </v>
    <v>       0.02040425       0.98192647       0.12383408 </v>
    <v>       0.01485459       0.98468967       0.62360682 </v>
    <v>       0.01357245       0.51007668       0.12122414 </v>
    <v>       0.00135555       0.50140125       0.62473895 </v>
    <v>       0.50316704       0.99971308       0.12615816 </v>
    <v>       0.50670763       0.00284326       0.62301903 </v>
    <v>       0.51433277       0.49167645       0.12735204 </v>
    <v>       0.47985506       0.52281571       0.62273121 </v>
    <v>       0.98607987       0.01329328       0.37461837 </v>
    <v>       0.98693258       0.01107921       0.87443238 </v>
    <v>       0.00422049       0.50521473       0.37969686 </v>
    <v>       0.99436996       0.49750688       0.87281999 </v>
    <v>       0.47961841       0.98540766       0.37839439 </v>
    <v>       0.49863035       0.99973273       0.87358990 </v>
    <v>       0.47759685       0.52275022       0.37837879 </v>
    <v>       0.24991379       0.24958358       0.37539645 </v>
    <v>       0.24955619       0.24485362       0.87602501 </v>
    <v>       0.28046499       0.73548197       0.37637971 </v>
    <v>       0.77054280       0.24410846       0.37660904 </v>
    <v>       0.76604973       0.24472929       0.87261515 </v>
    <v>       0.75400983       0.74841523       0.37458128 </v>
    <v>       0.75523146       0.75763396       0.87619664 </v>
    <v>       0.25086268       0.25792315       0.12413569 </v>
    <v>       0.25154203       0.24994597       0.62453165 </v>
    <v>       0.23050143       0.75674826       0.12313228 </v>
    <v>       0.73008842       0.26325647       0.12408142 </v>
    <v>       0.73180906       0.25767860       0.62365688 </v>
    <v>       0.74320117       0.74283273       0.12479699 </v>
    <v>       0.74932829       0.74812318       0.62392516 </v>
   </varray>
  </structure>
  <varray name="forces" >
   <v>      -0.00179686       0.00168456      -0.00001499 </v>
   <v>       0.00527458      -0.00268863       0.00257160 </v>
   <v>       0.00079330       0.00257021       0.00284025 </v>
   <v>       0.00160920       0.00068025       0.00409585 </v>
   <v>      -0.01402939       0.00339303       0.01056293 </v>
   <v>      -0.00169345      -0.00440675      -0.00011538 </v>
   <v>      -0.00111613       0.00253987      -0.00175764 </v>
   <v>      -0.00079318      -0.00137654      -0.00067857 </v>
   <v>       0.00312631       0.00179511      -0.00566868 </v>
   <v>       0.00533285      -0.00030314      -0.00118131 </v>
   <v>       0.00475357      -0.01263656      -0.00340409 </v>
   <v>      -0.00855234      -0.00647008      -0.00079696 </v>
   <v>      -0.00150917       0.00167439      -0.00016328 </v>
   <v>      -0.00899368      -0.00090478      -0.00256618 </v>
   <v>      -0.00311303      -0.01248685      -0.00517579 </v>
   <v>      -0.00546020       0.00354283      -0.00098483 </v>
   <v>       0.00215291      -0.00525651      -0.00267895 </v>
   <v>      -0.00894818      -0.00539204      -0.00825919 </v>
   <v>      -0.00159808      -0.00202851       0.00513709 </v>
   <v>       0.00066105      -0.00764369       0.00520361 </v>
   <v>       0.00472175       0.00055083      -0.00287164 </v>
   <v>       0.00772988       0.00370790      -0.00571081 </v>
   <v>      -0.00849475       0.00397505       0.00454127 </v>
   <v>       0.01040563      -0.00097422       0.00507261 </v>
   <v>       0.00173314       0.00154100      -0.01472547 </v>
   <v>       0.00566089       0.00237864       0.00375806 </v>
   <v>       0.00457383       0.00216325      -0.00118002 </v>
   <v>       0.00746507      -0.00421759      -0.00143610 </v>
   <v>       0.00242595      -0.00217241       0.00121594 </v>
   <v>      -0.00761470       0.01329311      -0.00001938 </v>
   <v>       0.00268097      -0.00039787      -0.01093645 </v>
   <v>       0.00544708       0.01249880      -0.00617468 </v>
   <v>       0.02294038      -0.00710210      -0.01975315 </v>
   <v>       0.02498068      -0.00594785      -0.00049764 </v>
   <v>       0.00197171      -0.00252707       0.00436147 </v>
   <v>       0.00720440       0.00344579      -0.00163635 </v>
   <v>       0.01790040       0.00379304      -0.00558850 </v>
   <v>      -0.00246730       0.00848209       0.01106162 </v>
   <v>      -0.01276004       0.00861592       0.00365487 </v>
   <v>       0.01247894       0.01994275       0.00559819 </v>
   <v>       0.00750747      -0.01229628      -0.00657159 </v>
   <v>       0.02008914      -0.00354981       0.00780168 </v>
   <v>       0.00435803      -0.00383534       0.00332845 </v>
   <v>       0.00118113      -0.00192195       0.01267323 </v>
   <v>       0.00322840      -0.00477515      -0.01809041 </v>
   <v>       0.01491225       0.01050734      -0.00124796 </v>
   <v>      -0.00005615      -0.00779515       0.00019961 </v>
   <v>      -0.02691694      -0.01361558      -0.00081218 </v>
   <v>      -0.00522903       0.00242115      -0.00036086 </v>
   <v>       0.00332453      -0.01011642       0.00145204 </v>
   <v>      -0.01113598       0.01251337      -0.00547876 </v>
   <v>      -0.00492086      -0.00552479       0.00741575 </v>
   <v>      -0.01337518      -0.01521747       0.00780796 </v>
   <v>      -0.01838274       0.02102339       0.00235764 </v>
   <v>       0.00660404       0.00948190       0.00336122 </v>
   <v>      -0.01413659      -0.00215661      -0.00683156 </v>
   <v>      -0.00611081      -0.01029697      -0.01169840 </v>
   <v>       0.00216057      -0.01060777       0.01246409 </v>
   <v>       0.01374505      -0.00536904       0.00635491 </v>
   <v>      -0.00395619      -0.00352590      -0.01208557 </v>
   <v>       0.01572566      -0.01255152      -0.00269850 </v>
   <v>      -0.00990011       0.01011951      -0.00387942 </v>
   <v>      -0.00401729      -0.00017092      -0.01069200 </v>
   <v>       0.00020210       0.00577609       0.00994281 </v>
   <v>       0.01213417       0.00757128      -0.00350099 </v>
   <v>       0.00950066      -0.00417494       0.00985416 </v>
   <v>       0.00718771      -0.00523657      -0.00222864 </v>
   <v>      -0.00507725      -0.00938222      -0.00581471 </v>
   <v>       0.01459215      -0.00422862       0.00249825 </v>
   <v>       0.00324940      -0.00631132       0.00085438 </v>
   <v>       0.00709141      -0.01472002      -0.00498433 </v>
   <v>       0.01492061      -0.00964781       0.01085501 </v>
   <v>      -0.00817441      -0.00154266       0.00383271 </v>
   <v>       0.01040878       0.01017711      -0.00531624 </v>
   <v>      -0.00776806       0.00855961      -0.00930266 </v>
   <v>       0.00428180       0.01868516       0.00772459 </v>
   <v>      -0.01274015       0.00202813      -0.00696615 </v>
   <v>      -0.00422380       0.01214788       0.00246238 </v>
   <v>      -0.00552426       0.01504314       0.00780444 </v>
   <v>       0.00692013       0.00167954       0.00029251 </v>
   <v>      -0.01096530       0.00841174       0.01684358 </v>
   <v>       0.00145659      -0.00857380       0.00234344 </v>
   <v>       0.00003070       0.01046821      -0.01469366 </v>
   <v>       0.00522141       0.00152759       0.00139180 </v>
   <v>      -0.00887253       0.00542069      -0.01499059 </v>
   <v>       0.00639062      -0.00412380      -0.00708966 </v>
   <v>       0.01517545      -0.00196314       0.00241610 </v>
   <v>      -0.01044693       0.00924290      -0.00222526 </v>
   <v>       0.00455163      -0.00394924       0.00660821 </v>
   <v>      -0.00762574       0.00113115       0.00162210 </v>
   <v>      -0.00599757       0.00117328       0.01606210 </v>
   <v>      -0.00510342      -0.00642091       0.00024290 </v>
   <v>      -0.00144630       0.00486045       0.00617652 </v>
   <v>       0.00225054       0.00397304       0.00070558 </v>
   <v>      -0.00039399      -0.00240578       0.01546841 </v>
   <v>       0.00012791      -0.00524788       0.00987491 </v>
   <v>      -0.00230481       0.00816652      -0.00075675 </v>
   <v>      -0.00635165      -0.00035048       0.00895197 </v>
   <v>       0.00228418       0.00123985       0.00717789 </v>
   <v>      -0.02556112      -0.02742651       0.00762695 </v>
   <v>       0.01019771       0.00149749      -0.01076639 </v>
   <v>      -0.00688161      -0.00599498       0.00560021 </v>
   <v>       0.01053119      -0.00624825      -0.00073825 </v>
   <v>      -0.00694981       0.00015438      -0.00698239 </v>
   <v>       0.00299642       0.00426940       0.00266187 </v>
   <v>      -0.00422139       0.00556678      -0.00961877 </v>
   <v>      -0.00740991      -0.00051214      -0.00459439 </v>
   <v>      -0.00808273       0.00336296      -0.01397578 </v>
   <v>      -0.01246356       0.01332989      -0.00772795 </v>
   <v>      -0.00960756       0.00304415       0.00299871 </v>
   <v>       0.00075430       0.00372313       0.00056229 </v>
   <v>       0.00007817      -0.01193932       0.00085395 </v>
   <v>       0.00070831      -0.00625919      -0.00151030 </v>
   <v>       0.01874678      -0.00349727      -0.01090816 </v>
   <v>       0.01333628      -0.00062521      -0.01335887 </v>
   <v>      -0.00909696       0.01314624      -0.00538054 </v>
   <v>      -0.00617328       0.00470924      -0.01279196 </v>
   <v>      -0.00177364       0.00921159      -0.00163442 </v>
   <v>       0.00147813       0.00860640       0.00106893 </v>
   <v>      -0.01155548       0.00561377      -0.00005999 </v>
   <v>      -0.00321173      -0.00538088      -0.00424095 </v>
   <v>      -0.00272059       0.00616184       0.00716888 </v>
   <v>       0.01094849      -0.00225743       0.00107267 </v>
   <v>      -0.00779695       0.00775510       0.02004478 </v>
   <v>       0.00570286      -0.00628563       0.00500209 </v>
   <v>      -0.00501871      -0.00338864       0.01802311 </v>
   <v>      -0.00174127       0.00539854       0.00255479 </v>
   <v>       0.00937582      -0.00039889      -0.00076623 </v>
   <v>      -0.00202947      -0.00118499       0.00880613 </v>
   <v>      -0.01020317      -0.00322946       0.00660044 </v>
   <v>      -0.00663990      -0.00352889       0.00680263 </v>
   <v>       0.00674065      -0.00634442       0.00225011 </v>
   <v>       0.00442819       0.00267372       0.00418457 </v>
   <v>       0.00319801      -0.01335182       0.00272525 </v>
   <v>      -0.00746101       0.00568104      -0.02528532 </v>
   <v>       0.00217530      -0.00291775      -0.00998073 </v>
   <v>      -0.00777620      -0.00198482       0.00100509 </v>
   <v>      -0.00953469       0.00119306      -0.01129094 </v>
   <v>      -0.00083158      -0.00814335       0.01743737 </v>
   <v>       0.00392198       0.00577363       0.00950656 </v>
   <v>      -0.01453668       0.00543361       0.00293762 </v>
   <v>      -0.00416541       0.00541728      -0.00251317 </v>
   <v>       0.00839802      -0.00703077      -0.00473604 </v>
   <v>       0.01064123      -0.00364209       0.01364065 </v>
   <v>      -0.00170228       0.00253628       0.00036865 </v>
   <v>       0.01543207      -0.01142731      -0.00746990 </v>
   <v>       0.00089949       0.00188753       0.00511595 </v>
   <v>       0.01340511       0.00039243      -0.01427577 </v>
   <v>      -0.00321515      -0.01221345      -0.00219179 </v>
   <v>      -0.01605299       0.00502520       0.00161058 </v>
   <v>      -0.01675802       0.00003439      -0.01195469 </v>
   <v>      -0.00194194      -0.00064967       0.01385717 </v>
   <v>      -0.01081294       0.00896699      -0.01235526 </v>
   <v>       0.01322620      -0.00255399       0.00858981 </v>
   <v>       0.00524317       0.00626575      -0.00771956 </v>
   <v>      -0.00338036       0.00250589       0.00954491 </v>
  </varray>
  <varray name="stress" >
   <v>      -0.05463722       0.05701570      -0.08832112 </v>
   <v>       0.05701544      -0.10062676      -0.03279311 </v>
   <v>      -0.08832011      -0.03279355       0.17296700 </v>
  </varray>
  <energy>
   <i name="e_fr_energy">  -1117.67642671 </i>
   <i name="e_wo_entrp">  -1117.67633346 </i>
   <i name="e_0_energy">     -0.00018648 </i>
  </energy>
  <time name="totalsc"> 1933.61 1935.68</time>
 </calculation>
 <calculation>
  <scstep>
   <time name="dav">  561.52  561.60</time>
   <time name="total">  568.70  568.83</time>
   <energy>
    <i name="alphaZ">   5621.11144083 </i>
    <i name="ewald"> -60836.09107361 </i>
    <i name="hartreedc"> -16675.61646304 </i>
    <i name="XCdc">   2962.03145064 </i>
    <i name="pawpsdc"> 112675.03338419 </i>
    <i name="pawaedc">-111574.27818778 </i>
    <i name="eentropy">     -0.00019051 </i>
    <i name="bandstr">  -7073.31470980 </i>
    <i name="atom">  73783.44779670 </i>
    <i name="e_fr_energy">  -1117.67655239 </i>
    <i name="e_wo_entrp">  -1117.67636188 </i>
    <i name="e_0_energy">  -1117.67645714 </i>
   </energy>
  </scstep>
  <scstep>
   <time name="diag">   64.64   64.66</time>
   <time name="diis">  104.07  104.11</time>
   <time name="orth">   33.32   33.32</time>
   <time name="total">  209.27  209.34</time>
   <energy>
    <i name="e_fr_energy">  -1117.67734841 </i>
    <i name="e_wo_entrp">  -1117.67718599 </i>
    <i name="e_0_energy">  -1117.67726720 </i>
   </energy>
  </scstep>
  <scstep>
   <time name="diag">   64.59   64.62</time>
   <time name="diis">   84.45   84.46</time>
   <time name="orth">   33.32   33.32</time>
   <time name="total">  189.59  189.68</time>
   <energy>
    <i name="e_fr_energy">  -1117.67736738 </i>
    <i name="e_wo_entrp">  -1117.67719965 </i>
    <i name="e_0_energy">  -1117.67728351 </i>
   </energy>
  </scstep>
  <scstep>
   <time name="diag">   64.69   64.71</time>
   <time name="diis">   64.20   64.22</time>
   <time name="orth">   33.30   33.30</time>
   <time name="total">  169.41  169.52</time>
   <energy>
    <i name="e_fr_energy">  -1117.67732488 </i>
    <i name="e_wo_entrp">  -1117.67715780 </i>
    <i name="e_0_energy">  -1117.67724134 </i>
   </energy>
  </scstep>
  <scstep>
   <time name="diag">   64.73   64.74</time>
   <time name="diis">   63.01   63.01</time>
   <time name="orth">   33.35   33.35</time>
   <time name="total">  168.32  168.47</time>
   <energy>
    <i name="e_fr_energy">  -1117.67731465 </i>
    <i name="e_wo_entrp">  -1117.67715275 </i>
    <i name="e_0_energy">  -1117.67723370 </i>
   </energy>
  </scstep>
  <scstep>
   <time name="diag">   64.68   64.68</time>
   <time name="diis">   61.64   61.65</time>
   <time name="orth">   33.26   33.26</time>
   <time name="total">  166.81  166.86</time>
   <energy>
    <i name="e_fr_energy">  -1117.67731587 </i>
    <i name="e_wo_entrp">  -1117.67715333 </i>
    <i name="e_0_energy">  -1117.67723460 </i>
   </energy>
  </scstep>
  <scstep>
   <time name="diag">   64.62   64.66</time>
   <time name="diis">   58.54   58.54</time>
   <time name="orth">   33.51   33.51</time>
   <time name="total">  163.86  163.96</time>
   <energy>
    <i name="e_fr_energy">  -1117.67731627 </i>
    <i name="e_wo_entrp">  -1117.67715299 </i>
    <i name="e_0_energy">  -1117.67723463 </i>
   </energy>
  </scstep>
  <scstep>
   <time name="diag">   64.58   64.59</time>
   <time name="diis">   56.08   56.12</time>
   <time name="orth">   33.49   33.49</time>
   <time name="total">  155.22  155.35</time>
   <energy>
    <i name="alphaZ">   5621.11144083 </i>
    <i name="ewald"> -60836.09107361 </i>
    <i name="hartreedc"> -16675.80326316 </i>
    <i name="XCdc">   2962.03785551 </i>
    <i name="pawpsdc"> 112673.56018714 </i>
    <i name="pawaedc">-111572.80758750 </i>
    <i name="eentropy">     -0.00016324 </i>
    <i name="bandstr">  -7073.13250912 </i>
    <i name="atom">  73783.44779670 </i>
    <i name="e_fr_energy">  -1117.67731645 </i>
    <i name="e_wo_entrp">  -1117.67715321 </i>
    <i name="e_0_energy">  -1117.67723483 </i>
   </energy>
  </scstep>
  <structure>
   <crystal>
    <varray name="basis" >
     <v>      11.24158044       0.01832455       0.01114317 </v>
     <v>       0.01833358      11.23180587       0.00581867 </v>
     <v>       0.01588719       0.00821529      15.90075776 </v>
    </varray>
    <i name="volume">   2007.67347466 </i>
    <varray name="rec_basis" >
     <v>       0.08895579      -0.00014516      -0.00008880 </v>
     <v>      -0.00014508       0.08903314      -0.00004585 </v>
     <v>      -0.00006229      -0.00003248       0.06289016 </v>
    </varray>
   </crystal>
   <varray name="positions" >
    <v>       0.00115672       0.25434995       0.12556220 </v>
    <v>       0.00478447       0.24967478       0.63071312 </v>
    <v>       0.99240551       0.74783685       0.12467529 </v>
    <v>       0.98341275       0.74964327       0.62992399 </v>
    <v>       0.49806950       0.24770209       0.12564755 </v>
    <v>       0.49634359       0.24425644       0.62849627 </v>
    <v>       0.50397456       0.75084499       0.12413132 </v>
    <v>       0.52179284       0.76051025       0.63166310 </v>
    <v>       0.00257989       0.25381118       0.36887403 </v>
    <v>       0.00145345       0.24891053       0.87638461 </v>
    <v>       0.98576443       0.74964691       0.36561073 </v>
    <v>       0.98754711       0.75065628       0.87552132 </v>
    <v>       0.49629591       0.24847706       0.36973502 </v>
    <v>       0.49741543       0.24108009       0.87669097 </v>
    <v>       0.51153703       0.75270468       0.36890649 </v>
    <v>       0.51291785       0.75932198       0.87859837 </v>
    <v>       0.25357541       0.00811410       0.12464135 </v>
    <v>       0.25261390       0.01219739       0.63004801 </v>
    <v>       0.24826128       0.49335331       0.12519657 </v>
    <v>       0.24234788       0.47638645       0.62982832 </v>
    <v>       0.74545995       0.00321409       0.12078745 </v>
    <v>       0.75218881       0.00004774       0.62807759 </v>
    <v>       0.75332159       0.49726309       0.12811445 </v>
    <v>       0.75623433       0.50369245       0.62836926 </v>
    <v>       0.24557080       0.01593510       0.36742954 </v>
    <v>       0.25064510       0.01197297       0.87800331 </v>
    <v>       0.24778830       0.49008296       0.36890556 </v>
    <v>       0.24123407       0.48333698       0.87632879 </v>
    <v>       0.75429692       0.00323794       0.36700831 </v>
    <v>       0.74930715       0.00042560       0.87572223 </v>
    <v>       0.75594759       0.49982917       0.37199719 </v>
    <v>       0.75611182       0.50035068       0.87567382 </v>
    <v>       0.00029082       0.00026404      -0.00004428 </v>
    <v>       0.99520104       0.00576290       0.49983164 </v>
    <v>       0.00010083       0.50080964       0.00010591 </v>
    <v>       0.99982381       0.49894413       0.50023542 </v>
    <v>       0.51093527       0.00495791       0.49934546 </v>
    <v>       0.25330201       0.25070948       0.00007979 </v>
    <v>       0.25035699       0.25043332       0.49965072 </v>
    <v>       0.24915685       0.75039955       0.00675672 </v>
    <v>       0.23057686       0.75358770       0.48711867 </v>
    <v>       0.74533603       0.25276114       0.00033883 </v>
    <v>       0.75353809       0.25364723       0.49850599 </v>
    <v>       0.74685674       0.74938401       0.99848908 </v>
    <v>       0.74975933       0.74924906       0.50002985 </v>
    <v>       0.25030726       0.74915370       0.24968813 </v>
    <v>       0.25394493       0.74740565       0.75812647 </v>
    <v>       0.74965382       0.25066053       0.74959764 </v>
    <v>       0.74927670       0.74891846       0.24790620 </v>
    <v>       0.00014552       0.00296709       0.24685806 </v>
    <v>       0.00045218       0.99962430       0.75024474 </v>
    <v>       0.99902297       0.49917798       0.75005549 </v>
    <v>       0.49862515       0.00114237       0.24808115 </v>
    <v>       0.50158047       0.00097593       0.75233921 </v>
    <v>       0.49932706       0.49927605       0.25292192 </v>
    <v>       0.49650466       0.50507751       0.73975249 </v>
    <v>       0.50003417       0.99993901       0.99987229 </v>
    <v>       0.50147465       0.49976037       0.00970576 </v>
    <v>       0.50886644       0.48803079       0.49526507 </v>
    <v>       0.24999054       0.25185922       0.24820169 </v>
    <v>       0.24965558       0.24744080       0.75225760 </v>
    <v>       0.74960610       0.25140952       0.24980188 </v>
    <v>       0.75135530       0.75160326       0.75243377 </v>
    <v>       0.00221330       0.50116898       0.24872138 </v>
    <v>       0.11867247       0.12992207       0.24848671 </v>
    <v>       0.11918849       0.12628931       0.74891507 </v>
    <v>       0.11837419       0.63301310       0.25561854 </v>
    <v>       0.12805425       0.62989643       0.74644179 </v>
    <v>       0.61655861       0.12939524       0.25826490 </v>
    <v>       0.61876282       0.13420904       0.75232460 </v>
    <v>       0.61737372       0.63289273       0.25258453 </v>
    <v>       0.61409969       0.62899633       0.75943630 </v>
    <v>       0.38189997       0.37086944       0.25210805 </v>
    <v>       0.38257351       0.37710659       0.75681907 </v>
    <v>       0.37981327       0.86533401       0.24223706 </v>
    <v>       0.38212926       0.86297005       0.74793926 </v>
    <v>       0.88578487       0.37287700       0.24587406 </v>
    <v>       0.87692886       0.37138330       0.74361594 </v>
    <v>       0.88128308       0.86716960       0.24653649 </v>
    <v>       0.88395492       0.87106159       0.74798341 </v>
    <v>       0.36800511       0.11861841       0.24825295 </v>
    <v>       0.37165735       0.11802867       0.74731267 </v>
    <v>       0.36592619       0.61881736       0.23466700 </v>
    <v>       0.37246148       0.61973172       0.78486179 </v>
    <v>       0.86934023       0.11711794       0.23474386 </v>
    <v>       0.86956312       0.12080170       0.73677297 </v>
    <v>       0.87036655       0.61687360       0.24846143 </v>
    <v>       0.87220722       0.62047695       0.74867250 </v>
    <v>       0.12879924       0.38365703       0.25042095 </v>
    <v>       0.12661163       0.37793259       0.75081344 </v>
    <v>       0.13283880       0.87862941       0.26566845 </v>
    <v>       0.13679650       0.87535483       0.76111566 </v>
    <v>       0.62949520       0.38415785       0.26666481 </v>
    <v>       0.62459673       0.38793798       0.75730976 </v>
    <v>       0.63147940       0.88064301       0.25291816 </v>
    <v>       0.63210963       0.88387690       0.74902130 </v>
    <v>       0.37141690       0.38458223       0.99172875 </v>
    <v>       0.36091328       0.38888122       0.50108353 </v>
    <v>       0.36405156       0.87712058       0.99148456 </v>
    <v>       0.34934598       0.82694414       0.54636426 </v>
    <v>       0.86900276       0.38388468       0.00387309 </v>
    <v>       0.85935276       0.39395989       0.50270781 </v>
    <v>       0.87011289       0.88130903       0.00454866 </v>
    <v>       0.85765137       0.89223718       0.50075938 </v>
    <v>       0.13201875       0.11773390       0.00097850 </v>
    <v>       0.13784165       0.10932805       0.49926844 </v>
    <v>       0.13433485       0.62277536       0.98206691 </v>
    <v>       0.16063342       0.60747819       0.51536014 </v>
    <v>       0.63376966       0.12071541       0.99637903 </v>
    <v>       0.64064598       0.10840608       0.49120429 </v>
    <v>       0.62781900       0.61774555       0.98735351 </v>
    <v>       0.63453443       0.61245017       0.49991128 </v>
    <v>       0.11851370       0.36952242       0.99697417 </v>
    <v>       0.11024613       0.36042079       0.50124580 </v>
    <v>       0.12223268       0.86582221       0.97721160 </v>
    <v>       0.10529789       0.85877999       0.48545319 </v>
    <v>       0.61726752       0.37250460       0.97889951 </v>
    <v>       0.61028342       0.35568582       0.49086464 </v>
    <v>       0.61971225       0.86835299       0.00175982 </v>
    <v>       0.60752706       0.85898646       0.49798307 </v>
    <v>       0.38098222       0.13186463       0.00338240 </v>
    <v>       0.38395377       0.12765291       0.50162237 </v>
    <v>       0.37991231       0.63311562       0.99389104 </v>
    <v>       0.88303889       0.13192485       0.01171457 </v>
    <v>       0.88894371       0.14112475       0.51440664 </v>
    <v>       0.88167167       0.63245244       0.00011793 </v>
    <v>       0.89392357       0.64249182       0.50132468 </v>
    <v>       0.02044449       0.98192469       0.12383173 </v>
    <v>       0.01484585       0.98468458       0.62363355 </v>
    <v>       0.01352866       0.51006286       0.12124420 </v>
    <v>       0.00132705       0.50138612       0.62475962 </v>
    <v>       0.50319600       0.99968578       0.12616498 </v>
    <v>       0.50672659       0.00285470       0.62303171 </v>
    <v>       0.51434658       0.49161908       0.12736032 </v>
    <v>       0.47982312       0.52284022       0.62265450 </v>
    <v>       0.98608927       0.01328076       0.37458808 </v>
    <v>       0.98689922       0.01107073       0.87443545 </v>
    <v>       0.00417961       0.50521995       0.37966262 </v>
    <v>       0.99436637       0.49747187       0.87287291 </v>
    <v>       0.47963516       0.98543241       0.37842321 </v>
    <v>       0.49856792       0.99975616       0.87359885 </v>
    <v>       0.47757895       0.52277352       0.37837117 </v>
    <v>       0.24994990       0.24955334       0.37538207 </v>
    <v>       0.24960182       0.24483787       0.87606638 </v>
    <v>       0.28045767       0.73549287       0.37638083 </v>
    <v>       0.77060913       0.24405929       0.37658635 </v>
    <v>       0.76605355       0.24473738       0.87263067 </v>
    <v>       0.75406742       0.74841686       0.37453792 </v>
    <v>       0.75521775       0.75758153       0.87619002 </v>
    <v>       0.25079375       0.25794484       0.12414062 </v>
    <v>       0.25147017       0.24994626       0.62449543 </v>
    <v>       0.23049304       0.75674545       0.12317434 </v>
    <v>       0.73004201       0.26329508       0.12404395 </v>
    <v>       0.73186580       0.25766752       0.62368291 </v>
    <v>       0.74322367       0.74285963       0.12477354 </v>
    <v>       0.74931372       0.74813394       0.62395413 </v>
   </varray>
  </structure>
  <varray name="forces" >
   <v>      -0.00343030       0.00062564       0.00198150 </v>
   <v>       0.00203438       0.00294362       0.00330140 </v>
   <v>      -0.00013395      -0.00090177      -0.00028718 </v>
   <v>      -0.00004275       0.00202886       0.00755489 </v>
   <v>      -0.00722596      -0.00068231       0.00483819 </v>
   <v>      -0.00120323      -0.00295248      -0.00908233 </v>
   <v>       0.00138613       0.00180753      -0.00743364 </v>
   <v>       0.00309950       0.00213301       0.00282642 </v>
   <v>       0.00332366      -0.00081324      -0.00965271 </v>
   <v>       0.00191177       0.00381828      -0.00158180 </v>
   <v>       0.00686003      -0.00803206      -0.00468204 </v>
   <v>      -0.01209307      -0.00767668      -0.00199076 </v>
   <v>      -0.00590467       0.00093353      -0.00083011 </v>
   <v>      -0.00447185       0.00439685       0.01069919 </v>
   <v>      -0.00077698      -0.00766031      -0.00108558 </v>
   <v>       0.00498591       0.00176804      -0.00216381 </v>
   <v>      -0.00014656       0.00033106      -0.00083794 </v>
   <v>      -0.00822027      -0.00648153      -0.00925396 </v>
   <v>      -0.00419445       0.00051290       0.00564662 </v>
   <v>      -0.00210334      -0.00417198       0.00277831 </v>
   <v>       0.00489625       0.00477819      -0.00426421 </v>
   <v>       0.00790457      -0.00144890      -0.00398315 </v>
   <v>      -0.00278737       0.00123938      -0.00102611 </v>
   <v>       0.00802289       0.00080970       0.00723210 </v>
   <v>      -0.00018323       0.00635560      -0.00865632 </v>
   <v>       0.00277465       0.00144594       0.00194130 </v>
   <v>       0.00615488      -0.00281382      -0.00379618 </v>
   <v>       0.00238878      -0.00182170       0.00321525 </v>
   <v>       0.00529622       0.00129255      -0.00407920 </v>
   <v>      -0.00627163       0.00614888       0.00088949 </v>
   <v>       0.00410097      -0.00307423      -0.00921282 </v>
   <v>       0.00318846       0.01216251      -0.00265394 </v>
   <v>      -0.02203245      -0.00466945       0.00983521 </v>
   <v>      -0.00167448      -0.00968678      -0.00505358 </v>
   <v>      -0.00101466       0.00422553       0.00158225 </v>
   <v>       0.00172409       0.00012257       0.00128083 </v>
   <v>      -0.00485978       0.00955645       0.00715420 </v>
   <v>       0.00910640      -0.00075799       0.00061733 </v>
   <v>       0.02083441      -0.00462552      -0.01577637 </v>
   <v>      -0.00013389      -0.02572557       0.00835168 </v>
   <v>      -0.02556210       0.00719766      -0.01114669 </v>
   <v>      -0.00024559       0.00089035      -0.00084033 </v>
   <v>       0.01186083      -0.00372971      -0.00602386 </v>
   <v>       0.00230428      -0.00450317      -0.01644221 </v>
   <v>       0.00297839       0.00168303       0.01174664 </v>
   <v>      -0.02099891      -0.01520228       0.00236052 </v>
   <v>      -0.00539735       0.00378228      -0.00157262 </v>
   <v>       0.00208999       0.01337022       0.01344162 </v>
   <v>       0.00631862       0.00529555      -0.00724069 </v>
   <v>      -0.00294858       0.01169834      -0.00435975 </v>
   <v>       0.00353006      -0.01284648       0.00696516 </v>
   <v>      -0.01285461      -0.00252391       0.01407281 </v>
   <v>       0.01239997       0.02073359      -0.00089093 </v>
   <v>       0.01302526      -0.02656008      -0.00273230 </v>
   <v>      -0.00570226      -0.00706216       0.00286733 </v>
   <v>       0.01678691       0.00914444      -0.02216891 </v>
   <v>       0.00192309       0.00548659      -0.00195025 </v>
   <v>       0.00889366      -0.00570128      -0.00186211 </v>
   <v>      -0.00199725       0.00111281       0.00372869 </v>
   <v>      -0.00269340       0.00080641       0.00613114 </v>
   <v>      -0.00472449      -0.00276424       0.00104063 </v>
   <v>      -0.00034713      -0.00165272      -0.00576490 </v>
   <v>      -0.00689483       0.00415793      -0.00155096 </v>
   <v>       0.00345770      -0.00071517       0.00028896 </v>
   <v>       0.00308965      -0.00098241      -0.00401012 </v>
   <v>       0.01152653      -0.00010629       0.00977944 </v>
   <v>       0.01207257      -0.00009394      -0.00034980 </v>
   <v>       0.00200976      -0.00451369      -0.00461681 </v>
[...]
       <r>   -16.3074     0.0000    32.0000 </r>
       <r>   -16.1548     0.0000    32.0000 </r>
       <r>   -16.0022     0.0000    32.0000 </r>
       <r>   -15.8496     0.0000    32.0000 </r>
       <r>   -15.6970     0.0000    32.0000 </r>
       <r>   -15.5444     0.0000    32.0000 </r>
       <r>   -15.3918     0.0000    32.0000 </r>
       <r>   -15.2392     0.0580    32.0089 </r>
       <r>   -15.0866    13.1780    34.0198 </r>
       <r>   -14.9340    40.5543    40.2083 </r>
       <r>   -14.7814    53.8354    48.4234 </r>
       <r>   -14.6288    39.9575    54.5208 </r>
       <r>   -14.4762    33.3791    59.6143 </r>
       <r>   -14.3236    36.2665    65.1485 </r>
       <r>   -14.1710    61.9435    74.6009 </r>
       <r>   -14.0184   100.2162    89.8936 </r>
       <r>   -13.8658   112.2510   107.0228 </r>
       <r>   -13.7132    88.9996   120.6039 </r>
       <r>   -13.5606    21.4423   123.8759 </r>
       <r>   -13.4080     0.8131   124.0000 </r>
       <r>   -13.2554     0.0000   124.0000 </r>
       <r>   -13.1028     0.0000   124.0000 </r>
       <r>   -12.9502     0.0000   124.0000 </r>
       <r>   -12.7977     0.0126   124.0019 </r>
       <r>   -12.6451    18.8611   126.8801 </r>
       <r>   -12.4925    90.5018   140.6904 </r>
       <r>   -12.3399   168.4105   166.3894 </r>
       <r>   -12.1873   126.6983   185.7232 </r>
       <r>   -12.0347   124.5290   204.7260 </r>
       <r>   -11.8821    80.7918   217.0546 </r>
       <r>   -11.7295    19.2658   219.9945 </r>
       <r>   -11.5769     0.0360   220.0000 </r>
       <r>   -11.4243     0.0000   220.0000 </r>
       <r>   -11.2717     0.0000   220.0000 </r>
       <r>   -11.1191     0.0000   220.0000 </r>
       <r>   -10.9665     0.0000   220.0000 </r>
       <r>   -10.8139     0.0000   220.0000 </r>
       <r>   -10.6613     0.0000   220.0000 </r>
       <r>   -10.5087     0.0000   220.0000 </r>
       <r>   -10.3561     0.0000   220.0000 </r>
       <r>   -10.2035     0.0000   220.0000 </r>
       <r>   -10.0509     0.0000   220.0000 </r>
       <r>    -9.8983     0.0000   220.0000 </r>
       <r>    -9.7457     0.0000   220.0000 </r>
       <r>    -9.5931     0.0000   220.0000 </r>
       <r>    -9.4405     0.0000   220.0000 </r>
       <r>    -9.2879     0.0000   220.0000 </r>
       <r>    -9.1353     0.0000   220.0000 </r>
       <r>    -8.9827     0.0000   220.0000 </r>
       <r>    -8.8301     0.0000   220.0000 </r>
       <r>    -8.6775     0.0000   220.0000 </r>
       <r>    -8.5249     0.0000   220.0000 </r>
       <r>    -8.3723     0.0000   220.0000 </r>
       <r>    -8.2197     0.0000   220.0000 </r>
       <r>    -8.0671     0.0000   220.0000 </r>
       <r>    -7.9145     0.0000   220.0000 </r>
       <r>    -7.7619     0.0000   220.0000 </r>
       <r>    -7.6093     0.0000   220.0000 </r>
       <r>    -7.4567     0.0000   220.0000 </r>
       <r>    -7.3042     0.0000   220.0000 </r>
       <r>    -7.1516     0.0000   220.0000 </r>
       <r>    -6.9990     0.0000   220.0000 </r>
       <r>    -6.8464     0.0000   220.0000 </r>
       <r>    -6.6938     0.0000   220.0000 </r>
       <r>    -6.5412     0.0000   220.0000 </r>
       <r>    -6.3886     0.0000   220.0000 </r>
       <r>    -6.2360     0.0000   220.0000 </r>
       <r>    -6.0834     0.0000   220.0000 </r>
       <r>    -5.9308     0.0000   220.0000 </r>
       <r>    -5.7782     0.0000   220.0000 </r>
       <r>    -5.6256     0.0000   220.0000 </r>
       <r>    -5.4730     0.0000   220.0000 </r>
       <r>    -5.3204     0.0000   220.0000 </r>
       <r>    -5.1678     0.0000   220.0000 </r>
       <r>    -5.0152     0.0000   220.0000 </r>
       <r>    -4.8626     0.0000   220.0000 </r>
       <r>    -4.7100     0.0000   220.0000 </r>
       <r>    -4.5574     0.0000   220.0000 </r>
       <r>    -4.4048     0.0000   220.0000 </r>
       <r>    -4.2522     0.0000   220.0000 </r>
       <r>    -4.0996     0.0000   220.0000 </r>
       <r>    -3.9470     0.0000   220.0000 </r>
       <r>    -3.7944     0.0000   220.0000 </r>
       <r>    -3.6418     0.0000   220.0000 </r>
       <r>    -3.4892     0.0000   220.0000 </r>
       <r>    -3.3366     0.0000   220.0000 </r>
       <r>    -3.1840     0.0000   220.0000 </r>
       <r>    -3.0314     0.0000   220.0000 </r>
       <r>    -2.8788     0.0000   220.0000 </r>
       <r>    -2.7262     0.0017   220.0003 </r>
       <r>    -2.5736     5.0909   220.7771 </r>
       <r>    -2.4210     1.7107   221.0382 </r>
       <r>    -2.2684     9.7473   222.5256 </r>
       <r>    -2.1158    20.6171   225.6717 </r>
       <r>    -1.9632    25.8584   229.6176 </r>
       <r>    -1.8107    34.2201   234.8395 </r>
       <r>    -1.6581    44.0257   241.5577 </r>
       <r>    -1.5055    53.2845   249.6888 </r>
       <r>    -1.3529    62.8135   259.2739 </r>
       <r>    -1.2003    72.8057   270.3839 </r>
       <r>    -1.0477    78.6118   282.3798 </r>
       <r>    -0.8951    70.6179   293.1559 </r>
       <r>    -0.7425    80.6249   305.4590 </r>
       <r>    -0.5899   101.4603   320.9416 </r>
       <r>    -0.4373   105.9647   337.1115 </r>
       <r>    -0.2847    83.6529   349.8767 </r>
       <r>    -0.1321    59.7085   358.9881 </r>
       <r>     0.0205    43.6609   365.6506 </r>
       <r>     0.1731    49.6840   373.2322 </r>
       <r>     0.3257    49.4078   380.7717 </r>
       <r>     0.4783    51.8423   388.6827 </r>
       <r>     0.6309    55.1556   397.0993 </r>
       <r>     0.7835    45.8614   404.0976 </r>
       <r>     0.9361    50.3357   411.7787 </r>
       <r>     1.0887    59.4810   420.8553 </r>
       <r>     1.2413    74.2653   432.1880 </r>
       <r>     1.3939    86.8480   445.4408 </r>
       <r>     1.5465    95.2881   459.9815 </r>
       <r>     1.6991    74.4192   471.3377 </r>
       <r>     1.8517    70.1861   482.0479 </r>
       <r>     2.0043    40.5137   488.2301 </r>
       <r>     2.1569    26.9035   492.3355 </r>
       <r>     2.3095    20.2064   495.4190 </r>
       <r>     2.4621    10.2903   496.9892 </r>
       <r>     2.6147     0.0705   497.0000 </r>
       <r>     2.7673     0.0000   497.0000 </r>
       <r>     2.9199     0.0000   497.0000 </r>
       <r>     3.0725     0.0000   497.0000 </r>
       <r>     3.2251     0.0000   497.0000 </r>
       <r>     3.3777     0.0000   497.0000 </r>
       <r>     3.5303     0.0000   497.0000 </r>
       <r>     3.6828     0.0000   497.0000 </r>
       <r>     3.8354     0.0000   497.0000 </r>
       <r>     3.9880     0.0000   497.0000 </r>
       <r>     4.1406     0.0000   497.0000 </r>
       <r>     4.2932     0.0000   497.0000 </r>
       <r>     4.4458     3.6583   497.5583 </r>
       <r>     4.5984    31.6862   502.3935 </r>
       <r>     4.7510    32.8393   507.4047 </r>
       <r>     4.9036    32.6163   512.3818 </r>
       <r>     5.0562    45.0122   519.2505 </r>
       <r>     5.2088    57.2524   527.9871 </r>
       <r>     5.3614    59.4591   537.0604 </r>
       <r>     5.5140    68.7047   547.5445 </r>
       <r>     5.6666    59.0678   556.5581 </r>
       <r>     5.8192    72.0917   567.5591 </r>
       <r>     5.9718    81.2349   579.9553 </r>
       <r>     6.1244    95.5993   594.5435 </r>
       <r>     6.2770    67.3833   604.8260 </r>
       <r>     6.4296    49.3741   612.3604 </r>
       <r>     6.5822    19.5799   615.3482 </r>
       <r>     6.7348    14.6531   617.5842 </r>
       <r>     6.8874    21.7081   620.8968 </r>
       <r>     7.0400    19.9796   623.9457 </r>
       <r>     7.1926    17.5492   626.6236 </r>
       <r>     7.3452    15.4868   628.9869 </r>
       <r>     7.4978    14.5528   631.2076 </r>
       <r>     7.6504    15.3424   633.5488 </r>
       <r>     7.8030    19.8073   636.5713 </r>
       <r>     7.9556    21.8803   639.9102 </r>
       <r>     8.1082    25.7049   643.8327 </r>
       <r>     8.2608    22.9353   647.3326 </r>
       <r>     8.4134    24.7304   651.1064 </r>
       <r>     8.5660    25.0414   654.9276 </r>
       <r>     8.7186    23.3460   658.4902 </r>
       <r>     8.8712    26.4205   662.5219 </r>
       <r>     9.0238    38.6119   668.4139 </r>
       <r>     9.1763    36.4488   673.9759 </r>
       <r>     9.3289    36.5124   679.5476 </r>
       <r>     9.4815    42.6390   686.0542 </r>
       <r>     9.6341    41.4550   692.3801 </r>
       <r>     9.7867    55.5461   700.8563 </r>
       <r>     9.9393    66.0067   710.9287 </r>
       <r>    10.0919    67.3552   721.2069 </r>
       <r>    10.2445    62.5902   730.7580 </r>
       <r>    10.3971    55.6109   739.2441 </r>
       <r>    10.5497    59.2769   748.2896 </r>
       <r>    10.7023    55.7621   756.7988 </r>
       <r>    10.8549    51.4765   764.6539 </r>
       <r>    11.0075    21.9113   767.9975 </r>
       <r>    11.1601     0.0162   768.0000 </r>
       <r>    11.3127     0.0000   768.0000 </r>
       <r>    11.4653     0.0000   768.0000 </r>
       <r>    11.6179     0.0000   768.0000 </r>
       <r>    11.7705     0.0000   768.0000 </r>
       <r>    11.9231     0.0000   768.0000 </r>
       <r>    12.0757     0.0000   768.0000 </r>
       <r>    12.2283     0.0000   768.0000 </r>
       <r>    12.3809     0.0000   768.0000 </r>
       <r>    12.5335     0.0000   768.0000 </r>
       <r>    12.6861     0.0000   768.0000 </r>
       <r>    12.8387     0.0000   768.0000 </r>
       <r>    12.9913     0.0000   768.0000 </r>
      </set>
     </set>
    </array>
   </total>
  </dos>
 </calculation>
 <structure name="finalpos" >
  <crystal>
   <varray name="basis" >
    <v>      11.24158044       0.01832455       0.01114317 </v>
    <v>       0.01833358      11.23180587       0.00581867 </v>
    <v>       0.01588719       0.00821529      15.90075776 </v>
   </varray>
   <i name="volume">   2007.67347466 </i>
   <varray name="rec_basis" >
    <v>       0.08895579      -0.00014516      -0.00008880 </v>
    <v>      -0.00014508       0.08903314      -0.00004585 </v>
    <v>      -0.00006229      -0.00003248       0.06289016 </v>
   </varray>
  </crystal>
  <varray name="positions" >
   <v>       0.00115672       0.25434995       0.12556220 </v>
   <v>       0.00478447       0.24967478       0.63071312 </v>
   <v>       0.99240551       0.74783685       0.12467529 </v>
   <v>       0.98341275       0.74964327       0.62992399 </v>
   <v>       0.49806950       0.24770209       0.12564755 </v>
   <v>       0.49634359       0.24425644       0.62849627 </v>
   <v>       0.50397456       0.75084499       0.12413132 </v>
   <v>       0.52179284       0.76051025       0.63166310 </v>
   <v>       0.00257989       0.25381118       0.36887403 </v>
   <v>       0.00145345       0.24891053       0.87638461 </v>
   <v>       0.98576443       0.74964691       0.36561073 </v>
   <v>       0.98754711       0.75065628       0.87552132 </v>
   <v>       0.49629591       0.24847706       0.36973502 </v>
   <v>       0.49741543       0.24108009       0.87669097 </v>
   <v>       0.51153703       0.75270468       0.36890649 </v>
   <v>       0.51291785       0.75932198       0.87859837 </v>
   <v>       0.25357541       0.00811410       0.12464135 </v>
   <v>       0.25261390       0.01219739       0.63004801 </v>
   <v>       0.24826128       0.49335331       0.12519657 </v>
   <v>       0.24234788       0.47638645       0.62982832 </v>
   <v>       0.74545995       0.00321409       0.12078745 </v>
   <v>       0.75218881       0.00004774       0.62807759 </v>
   <v>       0.75332159       0.49726309       0.12811445 </v>
   <v>       0.75623433       0.50369245       0.62836926 </v>
   <v>       0.24557080       0.01593510       0.36742954 </v>
   <v>       0.25064510       0.01197297       0.87800331 </v>
   <v>       0.24778830       0.49008296       0.36890556 </v>
   <v>       0.24123407       0.48333698       0.87632879 </v>
   <v>       0.75429692       0.00323794       0.36700831 </v>
   <v>       0.74930715       0.00042560       0.87572223 </v>
   <v>       0.75594759       0.49982917       0.37199719 </v>
   <v>       0.75611182       0.50035068       0.87567382 </v>
   <v>       0.00029082       0.00026404      -0.00004428 </v>
   <v>       0.99520104       0.00576290       0.49983164 </v>
   <v>       0.00010083       0.50080964       0.00010591 </v>
   <v>       0.99982381       0.49894413       0.50023542 </v>
   <v>       0.51093527       0.00495791       0.49934546 </v>
   <v>       0.25330201       0.25070948       0.00007979 </v>
   <v>       0.25035699       0.25043332       0.49965072 </v>
   <v>       0.24915685       0.75039955       0.00675672 </v>
   <v>       0.23057686       0.75358770       0.48711867 </v>
   <v>       0.74533603       0.25276114       0.00033883 </v>
   <v>       0.75353809       0.25364723       0.49850599 </v>
   <v>       0.74685674       0.74938401       0.99848908 </v>
   <v>       0.74975933       0.74924906       0.50002985 </v>
   <v>       0.25030726       0.74915370       0.24968813 </v>
   <v>       0.25394493       0.74740565       0.75812647 </v>
   <v>       0.74965382       0.25066053       0.74959764 </v>
   <v>       0.74927670       0.74891846       0.24790620 </v>
   <v>       0.00014552       0.00296709       0.24685806 </v>
   <v>       0.00045218       0.99962430       0.75024474 </v>
   <v>       0.99902297       0.49917798       0.75005549 </v>
   <v>       0.49862515       0.00114237       0.24808115 </v>
   <v>       0.50158047       0.00097593       0.75233921 </v>
   <v>       0.49932706       0.49927605       0.25292192 </v>
   <v>       0.49650466       0.50507751       0.73975249 </v>
   <v>       0.50003417       0.99993901       0.99987229 </v>
   <v>       0.50147465       0.49976037       0.00970576 </v>
   <v>       0.50886644       0.48803079       0.49526507 </v>
   <v>       0.24999054       0.25185922       0.24820169 </v>
   <v>       0.24965558       0.24744080       0.75225760 </v>
   <v>       0.74960610       0.25140952       0.24980188 </v>
   <v>       0.75135530       0.75160326       0.75243377 </v>
   <v>       0.00221330       0.50116898       0.24872138 </v>
   <v>       0.11867247       0.12992207       0.24848671 </v>
   <v>       0.11918849       0.12628931       0.74891507 </v>
   <v>       0.11837419       0.63301310       0.25561854 </v>
   <v>       0.12805425       0.62989643       0.74644179 </v>
   <v>       0.61655861       0.12939524       0.25826490 </v>
   <v>       0.61876282       0.13420904       0.75232460 </v>
   <v>       0.61737372       0.63289273       0.25258453 </v>
   <v>       0.61409969       0.62899633       0.75943630 </v>
   <v>       0.38189997       0.37086944       0.25210805 </v>
   <v>       0.38257351       0.37710659       0.75681907 </v>
   <v>       0.37981327       0.86533401       0.24223706 </v>
   <v>       0.38212926       0.86297005       0.74793926 </v>
   <v>       0.88578487       0.37287700       0.24587406 </v>
   <v>       0.87692886       0.37138330       0.74361594 </v>
   <v>       0.88128308       0.86716960       0.24653649 </v>
   <v>       0.88395492       0.87106159       0.74798341 </v>
   <v>       0.36800511       0.11861841       0.24825295 </v>
   <v>       0.37165735       0.11802867       0.74731267 </v>
   <v>       0.36592619       0.61881736       0.23466700 </v>
   <v>       0.37246148       0.61973172       0.78486179 </v>
   <v>       0.86934023       0.11711794       0.23474386 </v>
   <v>       0.86956312       0.12080170       0.73677297 </v>
   <v>       0.87036655       0.61687360       0.24846143 </v>
   <v>       0.87220722       0.62047695       0.74867250 </v>
   <v>       0.12879924       0.38365703       0.25042095 </v>
   <v>       0.12661163       0.37793259       0.75081344 </v>
   <v>       0.13283880       0.87862941       0.26566845 </v>
   <v>       0.13679650       0.87535483       0.76111566 </v>
   <v>       0.62949520       0.38415785       0.26666481 </v>
   <v>       0.62459673       0.38793798       0.75730976 </v>
   <v>       0.63147940       0.88064301       0.25291816 </v>
   <v>       0.63210963       0.88387690       0.74902130 </v>
   <v>       0.37141690       0.38458223       0.99172875 </v>
   <v>       0.36091328       0.38888122       0.50108353 </v>
   <v>       0.36405156       0.87712058       0.99148456 </v>
   <v>       0.34934598       0.82694414       0.54636426 </v>
   <v>       0.86900276       0.38388468       0.00387309 </v>
   <v>       0.85935276       0.39395989       0.50270781 </v>
   <v>       0.87011289       0.88130903       0.00454866 </v>
   <v>       0.85765137       0.89223718       0.50075938 </v>
   <v>       0.13201875       0.11773390       0.00097850 </v>
   <v>       0.13784165       0.10932805       0.49926844 </v>
   <v>       0.13433485       0.62277536       0.98206691 </v>
   <v>       0.16063342       0.60747819       0.51536014 </v>
   <v>       0.63376966       0.12071541       0.99637903 </v>
   <v>       0.64064598       0.10840608       0.49120429 </v>
   <v>       0.62781900       0.61774555       0.98735351 </v>
   <v>       0.63453443       0.61245017       0.49991128 </v>
   <v>       0.11851370       0.36952242       0.99697417 </v>
   <v>       0.11024613       0.36042079       0.50124580 </v>
   <v>       0.12223268       0.86582221       0.97721160 </v>
   <v>       0.10529789       0.85877999       0.48545319 </v>
   <v>       0.61726752       0.37250460       0.97889951 </v>
   <v>       0.61028342       0.35568582       0.49086464 </v>
   <v>       0.61971225       0.86835299       0.00175982 </v>
   <v>       0.60752706       0.85898646       0.49798307 </v>
   <v>       0.38098222       0.13186463       0.00338240 </v>
   <v>       0.38395377       0.12765291       0.50162237 </v>
   <v>       0.37991231       0.63311562       0.99389104 </v>
   <v>       0.88303889       0.13192485       0.01171457 </v>
   <v>       0.88894371       0.14112475       0.51440664 </v>
   <v>       0.88167167       0.63245244       0.00011793 </v>
   <v>       0.89392357       0.64249182       0.50132468 </v>
   <v>       0.02044449       0.98192469       0.12383173 </v>
   <v>       0.01484585       0.98468458       0.62363355 </v>
   <v>       0.01352866       0.51006286       0.12124420 </v>
   <v>       0.00132705       0.50138612       0.62475962 </v>
   <v>       0.50319600       0.99968578       0.12616498 </v>
   <v>       0.50672659       0.00285470       0.62303171 </v>
   <v>       0.51434658       0.49161908       0.12736032 </v>
   <v>       0.47982312       0.52284022       0.62265450 </v>
   <v>       0.98608927       0.01328076       0.37458808 </v>
   <v>       0.98689922       0.01107073       0.87443545 </v>
   <v>       0.00417961       0.50521995       0.37966262 </v>
   <v>       0.99436637       0.49747187       0.87287291 </v>
   <v>       0.47963516       0.98543241       0.37842321 </v>
   <v>       0.49856792       0.99975616       0.87359885 </v>
   <v>       0.47757895       0.52277352       0.37837117 </v>
   <v>       0.24994990       0.24955334       0.37538207 </v>
   <v>       0.24960182       0.24483787       0.87606638 </v>
   <v>       0.28045767       0.73549287       0.37638083 </v>
   <v>       0.77060913       0.24405929       0.37658635 </v>
   <v>       0.76605355       0.24473738       0.87263067 </v>
   <v>       0.75406742       0.74841686       0.37453792 </v>
   <v>       0.75521775       0.75758153       0.87619002 </v>
   <v>       0.25079375       0.25794484       0.12414062 </v>
   <v>       0.25147017       0.24994626       0.62449543 </v>
   <v>       0.23049304       0.75674545       0.12317434 </v>
   <v>       0.73004201       0.26329508       0.12404395 </v>
   <v>       0.73186580       0.25766752       0.62368291 </v>
   <v>       0.74322367       0.74285963       0.12477354 </v>
   <v>       0.74931372       0.74813394       0.62395413 </v>
  </varray>
 </structure>
</modeling>
