       N       E                     dE             d eps       ncg     rms          rms(c)
DAV:   1    -0.105271315905E+04   -0.10527E+04   -0.44242E-03 13728   0.158E-01    0.103E-01
RMM:   2    -0.105271315691E+04    0.21397E-05   -0.60404E-05  7048   0.118E-02    0.202E-01
RMM:   3    -0.105271315245E+04    0.44550E-05   -0.19127E-05  6345   0.849E-03    0.499E-02
RMM:   4    -0.105271315176E+04    0.68765E-06   -0.70241E-06  4782   0.314E-03    0.244E-02
RMM:   5    -0.105271315173E+04    0.36889E-07   -0.13314E-06  3262   0.242E-03    0.121E-02
RMM:   6    -0.105271315174E+04   -0.16793E-07   -0.36047E-07  1953   0.188E-03    0.118E-02
RMM:   7    -0.105271315171E+04    0.34648E-07   -0.22158E-07  1758   0.183E-03    0.619E-03
RMM:   8    -0.105271315168E+04    0.27008E-07   -0.12248E-07  1398   0.178E-03
   1 F= -.10527132E+04 E0= -.10527088E+04  d E =-.105271E+04  mag=    78.0000
       N       E                     dE             d eps       ncg     rms          rms(c)
DAV:   1    -0.105271278703E+04    0.36468E-03   -0.19092E-01 12512   0.507E-01    0.235E-01
RMM:   2    -0.105271350393E+04   -0.71690E-03   -0.61705E-03 12268   0.107E-01    0.206E-01
RMM:   3    -0.105271353377E+04   -0.29837E-04   -0.30137E-04  9226   0.327E-02    0.116E-01
RMM:   4    -0.105271349785E+04    0.35921E-04   -0.87257E-05  7373   0.135E-02    0.782E-02
RMM:   5    -0.105271348304E+04    0.14808E-04   -0.79267E-05  7251   0.111E-02    0.445E-02
RMM:   6    -0.105271348396E+04   -0.91834E-06   -0.16667E-05  6701   0.685E-03    0.192E-02
RMM:   7    -0.105271348417E+04   -0.21188E-06   -0.71129E-06  6054   0.361E-03    0.160E-02
RMM:   8    -0.105271348442E+04   -0.25045E-06   -0.29400E-06  4815   0.316E-03
   2 F= -.10527135E+04 E0= -.10527093E+04  d E =-.332735E-03  mag=    78.0000
       N       E                     dE             d eps       ncg     rms          rms(c)
DAV:   1    -0.105271351277E+04   -0.28599E-04   -0.17696E-02 12384   0.154E-01    0.714E-02
RMM:   2    -0.105271357701E+04   -0.64244E-04   -0.56193E-04 10903   0.324E-02    0.663E-02
RMM:   3    -0.105271357987E+04   -0.28565E-05   -0.26813E-05  6419   0.102E-02    0.359E-02
RMM:   4    -0.105271357687E+04    0.30008E-05   -0.87637E-06  6111   0.450E-03    0.240E-02
RMM:   5    -0.105271357464E+04    0.22254E-05   -0.76954E-06  5510   0.365E-03    0.159E-02
RMM:   6    -0.105271357450E+04    0.13690E-06   -0.11012E-06  3210   0.241E-03    0.460E-03
RMM:   7    -0.105271357443E+04    0.69864E-07   -0.57220E-08  1774   0.175E-03    0.390E-03
RMM:   8    -0.105271357440E+04    0.33149E-07   -0.13269E-08  1137   0.173E-03
   3 F= -.10527136E+04 E0= -.10527093E+04  d E =-.422719E-03  mag=    78.0000
       N       E                     dE             d eps       ncg     rms          rms(c)
DAV:   1    -0.105271331563E+04    0.25880E-03   -0.16990E-01 12512   0.489E-01    0.176E-01
RMM:   2    -0.105271392018E+04   -0.60454E-03   -0.45141E-03 12278   0.923E-02    0.116E-01
RMM:   3    -0.105271396821E+04   -0.48028E-04   -0.21147E-04  8217   0.297E-02    0.595E-02
RMM:   4    -0.105271395872E+04    0.94828E-05   -0.53565E-05  6996   0.116E-02    0.361E-02
RMM:   5    -0.105271395441E+04    0.43145E-05   -0.31662E-05  6802   0.774E-03    0.283E-02
RMM:   6    -0.105271395514E+04   -0.72710E-06   -0.11313E-05  6082   0.566E-03    0.152E-02
RMM:   7    -0.105271395555E+04   -0.41127E-06   -0.42841E-06  5109   0.326E-03    0.678E-03
RMM:   8    -0.105271395561E+04   -0.64902E-07   -0.17527E-06  3613   0.266E-03
   4 F= -.10527140E+04 E0= -.10527097E+04  d E =-.381211E-03  mag=    78.0000
