       N       E                     dE             d eps       ncg     rms          rms(c)
DAV:   1    -0.108653718167E+04   -0.10865E+04   -0.24160E-02 13440   0.364E-01    0.481E-02
RMM:   2    -0.108653718306E+04   -0.13900E-05   -0.27833E-05  6926   0.816E-03    0.890E-02
RMM:   3    -0.108653718260E+04    0.45812E-06   -0.98726E-06  6495   0.620E-03    0.225E-02
RMM:   4    -0.108653718321E+04   -0.61067E-06   -0.56900E-06  4678   0.288E-03    0.116E-02
RMM:   5    -0.108653718375E+04   -0.53864E-06   -0.23492E-06  4269   0.302E-03    0.511E-03
RMM:   6    -0.108653718475E+04   -0.10054E-05   -0.14010E-06  3084   0.228E-03    0.869E-03
RMM:   7    -0.108653718516E+04   -0.40384E-06   -0.75469E-07  2604   0.216E-03    0.599E-03
RMM:   8    -0.108653718618E+04   -0.10167E-05   -0.97979E-07  2689   0.228E-03
   1 F= -.10865372E+04 E0= -.10865362E+04  d E =-.108654E+04  mag=    58.0000
       N       E                     dE             d eps       ncg     rms          rms(c)
DAV:   1    -0.108653695994E+04    0.22522E-03   -0.46157E-01 12600   0.794E-01    0.285E-01
RMM:   2    -0.108653835701E+04   -0.13971E-02   -0.14586E-02 12340   0.160E-01    0.227E-01
RMM:   3    -0.108653836596E+04   -0.89452E-05   -0.75547E-04 11326   0.498E-02    0.138E-01
RMM:   4    -0.108653827500E+04    0.90954E-04   -0.23280E-04  8679   0.193E-02    0.939E-02
RMM:   5    -0.108653825531E+04    0.19688E-04   -0.10084E-04  7354   0.141E-02    0.445E-02
RMM:   6    -0.108653825640E+04   -0.10864E-05   -0.22545E-05  7108   0.810E-03    0.202E-02
RMM:   7    -0.108653825678E+04   -0.37847E-06   -0.10335E-05  6508   0.456E-03    0.139E-02
RMM:   8    -0.108653825703E+04   -0.25523E-06   -0.54351E-06  6165   0.390E-03
   2 F= -.10865383E+04 E0= -.10865372E+04  d E =-.107086E-02  mag=    58.0000
       N       E                     dE             d eps       ncg     rms          rms(c)
DAV:   1    -0.108653826434E+04   -0.75640E-05   -0.14916E-02 12896   0.143E-01    0.514E-02
RMM:   2    -0.108653830786E+04   -0.43520E-04   -0.44900E-04 10087   0.292E-02    0.409E-02
RMM:   3    -0.108653830927E+04   -0.14064E-05   -0.27182E-05  6560   0.105E-02    0.249E-02
RMM:   4    -0.108653830721E+04    0.20559E-05   -0.94932E-06  5941   0.447E-03    0.187E-02
RMM:   5    -0.108653830690E+04    0.31147E-06   -0.45564E-06  5403   0.330E-03    0.785E-03
RMM:   6    -0.108653830709E+04   -0.18397E-06   -0.75548E-07  2758   0.199E-03    0.351E-03
RMM:   7    -0.108653830722E+04   -0.13413E-06   -0.16545E-07  1672   0.166E-03    0.233E-03
RMM:   8    -0.108653830740E+04   -0.17910E-06   -0.55656E-08  1226   0.163E-03
   3 F= -.10865383E+04 E0= -.10865373E+04  d E =-.112122E-02  mag=    58.0000
       N       E                     dE             d eps       ncg     rms          rms(c)
DAV:   1    -0.108653807422E+04    0.23300E-03   -0.45251E-01 12496   0.798E-01    0.241E-01
RMM:   2    -0.108653936827E+04   -0.12940E-02   -0.11922E-02 12411   0.147E-01    0.171E-01
RMM:   3    -0.108653942181E+04   -0.53540E-04   -0.62271E-04 10613   0.482E-02    0.981E-02
RMM:   4    -0.108653938685E+04    0.34966E-04   -0.11788E-04  7313   0.156E-02    0.720E-02
RMM:   5    -0.108653937122E+04    0.15631E-04   -0.70065E-05  7163   0.116E-02    0.330E-02
RMM:   6    -0.108653937398E+04   -0.27600E-05   -0.23512E-05  7018   0.775E-03    0.188E-02
RMM:   7    -0.108653937536E+04   -0.13874E-05   -0.10253E-05  6647   0.499E-03    0.124E-02
RMM:   8    -0.108653937598E+04   -0.61796E-06   -0.52806E-06  5536   0.388E-03
   4 F= -.10865394E+04 E0= -.10865383E+04  d E =-.106858E-02  mag=    58.0000
