       N       E                     dE             d eps       ncg     rms          rms(c)
DAV:   1    -0.105829145234E+04   -0.10583E+04   -0.20478E-01  6816   0.104E+00    0.320E-02
RMM:   2    -0.105829145777E+04   -0.54285E-05   -0.69985E-05  3623   0.155E-02    0.335E-02
RMM:   3    -0.105829145950E+04   -0.17320E-05   -0.24332E-05  3558   0.941E-03    0.162E-02
RMM:   4    -0.105829146469E+04   -0.51875E-05   -0.17754E-05  3280   0.547E-03    0.136E-02
RMM:   5    -0.105829146652E+04   -0.18351E-05   -0.94938E-06  3024   0.482E-03    0.768E-03
RMM:   6    -0.105829146736E+04   -0.83234E-06   -0.67229E-06  2624   0.328E-03    0.389E-03
RMM:   7    -0.105829146762E+04   -0.26499E-06   -0.42239E-06  2214   0.326E-03    0.309E-03
RMM:   8    -0.105829146784E+04   -0.22090E-06   -0.27370E-06  1687   0.239E-03
   1 F= -.10582915E+04 E0= -.10582915E+04  d E =-.105829E+04  mag=    80.0000
       N       E                     dE             d eps       ncg     rms          rms(c)
DAV:   1    -0.105829868822E+04   -0.72206E-02   -0.30933E+00  6208   0.213E+00    0.835E-01
RMM:   2    -0.105830361156E+04   -0.49233E-02   -0.10027E-01  6197   0.434E-01    0.669E-01
RMM:   3    -0.105830295904E+04    0.65251E-03   -0.62350E-03  6462   0.144E-01    0.380E-01
RMM:   4    -0.105830233311E+04    0.62593E-03   -0.18676E-03  6684   0.509E-02    0.237E-01
RMM:   5    -0.105830213053E+04    0.20258E-03   -0.55179E-04  5770   0.298E-02    0.113E-01
RMM:   6    -0.105830213032E+04    0.20921E-06   -0.81260E-05  3715   0.128E-02    0.622E-02
RMM:   7    -0.105830212947E+04    0.85290E-06   -0.39064E-05  3671   0.921E-03    0.331E-02
RMM:   8    -0.105830212514E+04    0.43363E-05   -0.24721E-05  3607   0.727E-03
   2 F= -.10583021E+04 E0= -.10583021E+04  d E =-.106573E-01  mag=    80.0000
       N       E                     dE             d eps       ncg     rms          rms(c)
DAV:   1    -0.105830251849E+04   -0.38902E-03   -0.68227E-01  6256   0.100E+00    0.390E-01
RMM:   2    -0.105830361758E+04   -0.10991E-02   -0.22212E-02  6195   0.203E-01    0.311E-01
RMM:   3    -0.105830347282E+04    0.14475E-03   -0.13701E-03  6330   0.675E-02    0.176E-01
RMM:   4    -0.105830333342E+04    0.13940E-03   -0.35676E-04  4722   0.241E-02    0.115E-01
RMM:   5    -0.105830328942E+04    0.44006E-04   -0.12348E-04  3702   0.175E-02    0.733E-02
RMM:   6    -0.105830328959E+04   -0.17956E-06   -0.39145E-05  3618   0.106E-02    0.371E-02
RMM:   7    -0.105830328892E+04    0.67333E-06   -0.18636E-05  3564   0.654E-03    0.180E-02
RMM:   8    -0.105830328721E+04    0.17069E-05   -0.11244E-05  3526   0.537E-03
   3 F= -.10583033E+04 E0= -.10583033E+04  d E =-.118194E-01  mag=    80.0000
       N       E                     dE             d eps       ncg     rms          rms(c)
DAV:   1    -0.105830667122E+04   -0.33823E-02   -0.13858E+00  6208   0.142E+00    0.418E-01
RMM:   2    -0.105830987728E+04   -0.32061E-02   -0.39537E-02  6228   0.273E-01    0.292E-01
RMM:   3    -0.105830985380E+04    0.23474E-04   -0.23154E-03  6436   0.856E-02    0.176E-01
RMM:   4    -0.105830970087E+04    0.15293E-03   -0.49111E-04  5289   0.271E-02    0.975E-02
RMM:   5    -0.105830965909E+04    0.41779E-04   -0.16942E-04  3707   0.185E-02    0.402E-02
RMM:   6    -0.105830966566E+04   -0.65671E-05   -0.48519E-05  3599   0.127E-02    0.481E-02
RMM:   7    -0.105830966884E+04   -0.31840E-05   -0.24273E-05  3568   0.693E-03    0.156E-02
RMM:   8    -0.105830967194E+04   -0.31018E-05   -0.12770E-05  3518   0.632E-03
   4 F= -.10583097E+04 E0= -.10583097E+04  d E =-.638473E-02  mag=    80.0000
       N       E                     dE             d eps       ncg     rms          rms(c)
DAV:   1    -0.105830041127E+04    0.92576E-02   -0.69300E+00  6144   0.318E+00    0.936E-01
RMM:   2    -0.105831641007E+04   -0.15999E-01   -0.19798E-01  6225   0.611E-01    0.651E-01
RMM:   3    -0.105831628238E+04    0.12769E-03   -0.11526E-02  6642   0.192E-01    0.393E-01
RMM:   4    -0.105831554437E+04    0.73802E-03   -0.26697E-03  7520   0.597E-02    0.218E-01
RMM:   5    -0.105831534446E+04    0.19991E-03   -0.99190E-04  6492   0.324E-02    0.730E-02
RMM:   6    -0.105831535092E+04   -0.64624E-05   -0.11512E-04  3851   0.160E-02    0.657E-02
RMM:   7    -0.105831535876E+04   -0.78379E-05   -0.54532E-05  3681   0.999E-03    0.338E-02
RMM:   8    -0.105831536684E+04   -0.80760E-05   -0.35911E-05  3634   0.889E-03
   5 F= -.10583154E+04 E0= -.10583154E+04  d E =-.120796E-01  mag=    80.0000
       N       E                     dE             d eps       ncg     rms          rms(c)
DAV:   1    -0.105831627875E+04   -0.91999E-03   -0.11919E+00  6240   0.131E+00    0.431E-01
RMM:   2    -0.105831992867E+04   -0.36499E-02   -0.32031E-02  6327   0.242E-01    0.258E-01
RMM:   3    -0.105832013541E+04   -0.20674E-03   -0.17879E-03  6355   0.732E-02    0.140E-01
RMM:   4    -0.105832003084E+04    0.10457E-03   -0.37204E-04  4853   0.241E-02    0.753E-02
RMM:   5    -0.105832001477E+04    0.16070E-04   -0.13541E-04  3678   0.166E-02    0.426E-02
RMM:   6    -0.105832001972E+04   -0.49479E-05   -0.40250E-05  3586   0.112E-02    0.319E-02
RMM:   7    -0.105832002293E+04   -0.32171E-05   -0.22400E-05  3532   0.646E-03    0.152E-02
RMM:   8    -0.105832002517E+04   -0.22369E-05   -0.12919E-05  3503   0.618E-03
   6 F= -.10583200E+04 E0= -.10583200E+04  d E =-.465833E-02  mag=    80.0000
       N       E                     dE             d eps       ncg     rms          rms(c)
DAV:   1    -0.105829243386E+04    0.27589E-01   -0.10725E+01  6144   0.392E+00    0.129E+00
RMM:   2    -0.105832497790E+04   -0.32544E-01   -0.28642E-01  6305   0.727E-01    0.770E-01
RMM:   3    -0.105832690970E+04   -0.19318E-02   -0.16147E-02  6670   0.222E-01    0.420E-01
RMM:   4    -0.105832599915E+04    0.91055E-03   -0.36620E-03  7733   0.703E-02    0.223E-01
RMM:   5    -0.105832583050E+04    0.16865E-03   -0.12392E-03  7017   0.355E-02    0.795E-02
RMM:   6    -0.105832584278E+04   -0.12281E-04   -0.16098E-04  3942   0.166E-02    0.499E-02
RMM:   7    -0.105832585213E+04   -0.93513E-05   -0.76278E-05  3711   0.105E-02    0.295E-02
RMM:   8    -0.105832585973E+04   -0.75977E-05   -0.49593E-05  3653   0.950E-03
   7 F= -.10583259E+04 E0= -.10583259E+04  d E =-.104929E-01  mag=    80.0000
       N       E                     dE             d eps       ncg     rms          rms(c)
DAV:   1    -0.105832594928E+04   -0.97148E-04   -0.14432E+00  6224   0.144E+00    0.429E-01
RMM:   2    -0.105833004140E+04   -0.40921E-02   -0.38910E-02  6381   0.265E-01    0.248E-01
RMM:   3    -0.105833019423E+04   -0.15284E-03   -0.21091E-03  6538   0.783E-02    0.148E-01
RMM:   4    -0.105833009583E+04    0.98404E-04   -0.36243E-04  4923   0.242E-02    0.908E-02
RMM:   5    -0.105833005504E+04    0.40784E-04   -0.16910E-04  3737   0.171E-02    0.424E-02
RMM:   6    -0.105833005810E+04   -0.30563E-05   -0.53111E-05  3594   0.121E-02    0.422E-02
RMM:   7    -0.105833006035E+04   -0.22535E-05   -0.28552E-05  3559   0.771E-03    0.187E-02
RMM:   8    -0.105833006010E+04    0.25154E-06   -0.17182E-05  3507   0.695E-03
   8 F= -.10583301E+04 E0= -.10583301E+04  d E =-.420037E-02  mag=    80.0000
       N       E                     dE             d eps       ncg     rms          rms(c)
DAV:   1    -0.105831290830E+04    0.17152E-01   -0.75398E+00  6144   0.328E+00    0.977E-01
RMM:   2    -0.105833410006E+04   -0.21192E-01   -0.20073E-01  6340   0.606E-01    0.564E-01
RMM:   3    -0.105833500631E+04   -0.90625E-03   -0.11059E-02  6761   0.181E-01    0.338E-01
RMM:   4    -0.105833452562E+04    0.48069E-03   -0.21738E-03  7777   0.534E-02    0.205E-01
RMM:   5    -0.105833431733E+04    0.20829E-03   -0.88115E-04  6589   0.296E-02    0.790E-02
RMM:   6    -0.105833431775E+04   -0.42003E-06   -0.14004E-04  3820   0.156E-02    0.524E-02
RMM:   7    -0.105833432265E+04   -0.49006E-05   -0.60381E-05  3668   0.101E-02    0.300E-02
RMM:   8    -0.105833432183E+04    0.82125E-06   -0.40943E-05  3619   0.911E-03
   9 F= -.10583343E+04 E0= -.10583343E+04  d E =-.846210E-02  mag=    80.0000
       N       E                     dE             d eps       ncg     rms          rms(c)
DAV:   1    -0.105833182339E+04    0.24993E-02   -0.22826E+00  6416   0.179E+00    0.513E-01
RMM:   2    -0.105833859461E+04   -0.67712E-02   -0.59739E-02  6406   0.326E-01    0.305E-01
RMM:   3    -0.105833889687E+04   -0.30226E-03   -0.30924E-03  6610   0.927E-02    0.165E-01
RMM:   4    -0.105833875840E+04    0.13848E-03   -0.52198E-04  5673   0.277E-02    0.975E-02
RMM:   5    -0.105833871660E+04    0.41799E-04   -0.30460E-04  4390   0.194E-02    0.312E-02
RMM:   6    -0.105833872194E+04   -0.53452E-05   -0.54529E-05  3639   0.124E-02    0.362E-02
RMM:   7    -0.105833872523E+04   -0.32834E-05   -0.29083E-05  3576   0.725E-03    0.159E-02
RMM:   8    -0.105833872794E+04   -0.27107E-05   -0.17828E-05  3553   0.711E-03
  10 F= -.10583387E+04 E0= -.10583387E+04  d E =-.440611E-02  mag=    80.0000
       N       E                     dE             d eps       ncg     rms          rms(c)
DAV:   1    -0.105832347513E+04    0.15250E-01   -0.61310E+00  6336   0.293E+00    0.840E-01
RMM:   2    -0.105834155167E+04   -0.18077E-01   -0.15947E-01  6386   0.534E-01    0.500E-01
RMM:   3    -0.105834240511E+04   -0.85343E-03   -0.83211E-03  6791   0.153E-01    0.271E-01
RMM:   4    -0.105834204630E+04    0.35881E-03   -0.14937E-03  7200   0.440E-02    0.162E-01
RMM:   5    -0.105834192023E+04    0.12606E-03   -0.76486E-04  5933   0.272E-02    0.476E-02
RMM:   6    -0.105834192984E+04   -0.96072E-05   -0.95393E-05  3737   0.146E-02    0.347E-02
RMM:   7    -0.105834193523E+04   -0.53896E-05   -0.49573E-05  3659   0.869E-03    0.256E-02
RMM:   8    -0.105834193929E+04   -0.40615E-05   -0.31300E-05  3622   0.857E-03
  11 F= -.10583419E+04 E0= -.10583419E+04  d E =-.761746E-02  mag=    80.0000
       N       E                     dE             d eps       ncg     rms          rms(c)
DAV:   1    -0.105833691480E+04    0.50204E-02   -0.26717E+00  6448   0.193E+00    0.646E-01
RMM:   2    -0.105834572941E+04   -0.88146E-02   -0.69404E-02  6280   0.362E-01    0.392E-01
RMM:   3    -0.105834645201E+04   -0.72260E-03   -0.42145E-03  6562   0.105E-01    0.217E-01
RMM:   4    -0.105834628767E+04    0.16434E-03   -0.55113E-04  5797   0.290E-02    0.140E-01
RMM:   5    -0.105834618862E+04    0.99044E-04   -0.49013E-04  5049   0.232E-02    0.482E-02
RMM:   6    -0.105834618989E+04   -0.12620E-05   -0.65876E-05  3639   0.133E-02    0.426E-02
RMM:   7    -0.105834619242E+04   -0.25322E-05   -0.31773E-05  3572   0.776E-03    0.194E-02
RMM:   8    -0.105834619172E+04    0.70072E-06   -0.19130E-05  3529   0.736E-03
  12 F= -.10583462E+04 E0= -.10583462E+04  d E =-.425243E-02  mag=    80.0000
       N       E                     dE             d eps       ncg     rms          rms(c)
DAV:   1    -0.105833853176E+04    0.76607E-02   -0.27138E+00  6352   0.194E+00    0.650E-01
RMM:   2    -0.105834749911E+04   -0.89673E-02   -0.70464E-02  6277   0.365E-01    0.394E-01
RMM:   3    -0.105834824045E+04   -0.74134E-03   -0.42642E-03  6561   0.107E-01    0.219E-01
RMM:   4    -0.105834807726E+04    0.16319E-03   -0.55263E-04  5795   0.292E-02    0.142E-01
RMM:   5    -0.105834797663E+04    0.10062E-03   -0.49298E-04  5094   0.232E-02    0.495E-02
RMM:   6    -0.105834797723E+04   -0.59781E-06   -0.64240E-05  3648   0.131E-02    0.436E-02
RMM:   7    -0.105834797969E+04   -0.24617E-05   -0.30206E-05  3583   0.765E-03    0.193E-02
RMM:   8    -0.105834797903E+04    0.66223E-06   -0.18086E-05  3531   0.716E-03
  13 F= -.10583480E+04 E0= -.10583480E+04  d E =-.603974E-02  mag=    80.0000
       N       E                     dE             d eps       ncg     rms          rms(c)
DAV:   1    -0.105833948517E+04    0.84945E-02   -0.36586E+00  6336   0.224E+00    0.706E-01
RMM:   2    -0.105835124649E+04   -0.11761E-01   -0.94753E-02  6304   0.419E-01    0.422E-01
RMM:   3    -0.105835210331E+04   -0.85682E-03   -0.54075E-03  6579   0.120E-01    0.206E-01
RMM:   4    -0.105835186158E+04    0.24173E-03   -0.84424E-04  6402   0.343E-02    0.124E-01
RMM:   5    -0.105835177732E+04    0.84266E-04   -0.52922E-04  5346   0.237E-02    0.429E-02
RMM:   6    -0.105835178257E+04   -0.52531E-05   -0.61230E-05  3657   0.130E-02    0.344E-02
RMM:   7    -0.105835178606E+04   -0.34930E-05   -0.32450E-05  3591   0.721E-03    0.195E-02
RMM:   8    -0.105835178888E+04   -0.28215E-05   -0.19800E-05  3540   0.742E-03
  14 F= -.10583518E+04 E0= -.10583518E+04  d E =-.380985E-02  mag=    80.0000
       N       E                     dE             d eps       ncg     rms          rms(c)
DAV:   1    -0.105834178107E+04    0.10005E-01   -0.33155E+00  6280   0.214E+00    0.671E-01
RMM:   2    -0.105835244450E+04   -0.10663E-01   -0.85911E-02  6302   0.399E-01    0.403E-01
RMM:   3    -0.105835322388E+04   -0.77938E-03   -0.49281E-03  6570   0.115E-01    0.197E-01
RMM:   4    -0.105835300475E+04    0.21913E-03   -0.75995E-04  6262   0.328E-02    0.119E-01
RMM:   5    -0.105835292869E+04    0.76062E-04   -0.49215E-04  5248   0.230E-02    0.423E-02
RMM:   6    -0.105835293354E+04   -0.48543E-05   -0.58118E-05  3652   0.126E-02    0.346E-02
RMM:   7    -0.105835293688E+04   -0.33346E-05   -0.30633E-05  3589   0.708E-03    0.186E-02
RMM:   8    -0.105835293956E+04   -0.26823E-05   -0.18865E-05  3548   0.721E-03
  15 F= -.10583529E+04 E0= -.10583529E+04  d E =-.496053E-02  mag=    80.0000
       N       E                     dE             d eps       ncg     rms          rms(c)
DAV:   1    -0.105834755971E+04    0.53772E-02   -0.24186E+00  6360   0.181E+00    0.545E-01
RMM:   2    -0.105835525230E+04   -0.76926E-02   -0.61385E-02  6374   0.331E-01    0.307E-01
RMM:   3    -0.105835573904E+04   -0.48674E-03   -0.33094E-03  6579   0.918E-02    0.151E-01
RMM:   4    -0.105835558842E+04    0.15062E-03   -0.47105E-04  5458   0.261E-02    0.891E-02
RMM:   5    -0.105835554650E+04    0.41927E-04   -0.27600E-04  4216   0.187E-02    0.356E-02
RMM:   6    -0.105835555050E+04   -0.40036E-05   -0.46327E-05  3586   0.113E-02    0.288E-02
RMM:   7    -0.105835555228E+04   -0.17831E-05   -0.23088E-05  3514   0.651E-03    0.159E-02
RMM:   8    -0.105835555261E+04   -0.32589E-06   -0.13991E-05  3412   0.623E-03
  16 F= -.10583556E+04 E0= -.10583556E+04  d E =-.261305E-02  mag=    80.0000
       N       E                     dE             d eps       ncg     rms          rms(c)
DAV:   1    -0.105831535092E+04    0.40201E-01   -0.12955E+01  6256   0.418E+00    0.126E+00
RMM:   2    -0.105835648845E+04   -0.41138E-01   -0.32801E-01  6364   0.767E-01    0.711E-01
RMM:   3    -0.105835916789E+04   -0.26794E-02   -0.17832E-02  6813   0.213E-01    0.349E-01
RMM:   4    -0.105835837766E+04    0.79023E-03   -0.26717E-03  7501   0.586E-02    0.207E-01
RMM:   5    -0.105835814110E+04    0.23656E-03   -0.15080E-03  6244   0.368E-02    0.729E-02
RMM:   6    -0.105835814809E+04   -0.69927E-05   -0.14925E-04  3947   0.177E-02    0.387E-02
RMM:   7    -0.105835815007E+04   -0.19758E-05   -0.54112E-05  3688   0.950E-03    0.273E-02
RMM:   8    -0.105835815128E+04   -0.12141E-05   -0.48667E-05  3648   0.893E-03
  17 F= -.10583582E+04 E0= -.10583582E+04  d E =-.521172E-02  mag=    80.0000
       N       E                     dE             d eps       ncg     rms          rms(c)
DAV:   1    -0.105834680533E+04    0.11345E-01   -0.44331E+00  6160   0.244E+00    0.744E-01
RMM:   2    -0.105836055950E+04   -0.13754E-01   -0.11292E-01  6291   0.453E-01    0.440E-01
RMM:   3    -0.105836150813E+04   -0.94863E-03   -0.67687E-03  6699   0.131E-01    0.238E-01
RMM:   4    -0.105836124345E+04    0.26468E-03   -0.86187E-04  6495   0.350E-02    0.151E-01
RMM:   5    -0.105836109929E+04    0.14416E-03   -0.65856E-04  5495   0.260E-02    0.529E-02
RMM:   6    -0.105836110070E+04   -0.14091E-05   -0.81914E-05  3672   0.142E-02    0.398E-02
RMM:   7    -0.105836110395E+04   -0.32467E-05   -0.37928E-05  3599   0.797E-03    0.234E-02
RMM:   8    -0.105836110345E+04    0.50115E-06   -0.22103E-05  3565   0.754E-03
  18 F= -.10583611E+04 E0= -.10583611E+04  d E =-.295217E-02  mag=    80.0000
       N       E                     dE             d eps       ncg     rms          rms(c)
DAV:   1    -0.105835729726E+04    0.38067E-02   -0.13204E+00  6304   0.133E+00    0.406E-01
RMM:   2    -0.105836140374E+04   -0.41065E-02   -0.33723E-02  6295   0.247E-01    0.240E-01
RMM:   3    -0.105836168270E+04   -0.27897E-03   -0.20046E-03  6396   0.715E-02    0.131E-01
RMM:   4    -0.105836160228E+04    0.80427E-04   -0.22867E-04  4251   0.194E-02    0.829E-02
RMM:   5    -0.105836155755E+04    0.44725E-04   -0.17822E-04  3760   0.158E-02    0.329E-02
RMM:   6    -0.105836156068E+04   -0.31289E-05   -0.42318E-05  3571   0.108E-02    0.384E-02
RMM:   7    -0.105836156238E+04   -0.16984E-05   -0.20306E-05  3531   0.639E-03    0.154E-02
RMM:   8    -0.105836156234E+04    0.36511E-07   -0.12193E-05  3361   0.596E-03
  19 F= -.10583616E+04 E0= -.10583616E+04  d E =-.341106E-02  mag=    80.0000
       N       E                     dE             d eps       ncg     rms          rms(c)
DAV:   1    -0.105835859958E+04    0.29628E-02   -0.12296E+00  6208   0.129E+00    0.497E-01
RMM:   2    -0.105836306275E+04   -0.44632E-02   -0.32289E-02  6268   0.246E-01    0.304E-01
RMM:   3    -0.105836346304E+04   -0.40029E-03   -0.19353E-03  6377   0.706E-02    0.160E-01
RMM:   4    -0.105836333495E+04    0.12809E-03   -0.28828E-04  4491   0.213E-02    0.979E-02
RMM:   5    -0.105836327428E+04    0.60671E-04   -0.24223E-04  4077   0.180E-02    0.315E-02
RMM:   6    -0.105836327633E+04   -0.20490E-05   -0.38105E-05  3597   0.112E-02    0.369E-02
RMM:   7    -0.105836327756E+04   -0.12341E-05   -0.16813E-05  3496   0.567E-03    0.152E-02
RMM:   8    -0.105836327756E+04    0.43510E-08   -0.89674E-06  3377   0.539E-03
  20 F= -.10583633E+04 E0= -.10583633E+04  d E =-.171522E-02  mag=    80.0000
       N       E                     dE             d eps       ncg     rms          rms(c)
DAV:   1    -0.105836322584E+04    0.51727E-04   -0.20547E-02  6704   0.167E-01    0.637E-02
RMM:   2    -0.105836330028E+04   -0.74444E-04   -0.53924E-04  5324   0.321E-02    0.394E-02
RMM:   3    -0.105836330723E+04   -0.69469E-05   -0.32277E-05  3469   0.110E-02    0.227E-02
RMM:   4    -0.105836330651E+04    0.72291E-06   -0.10275E-05  3195   0.489E-03    0.136E-02
RMM:   5    -0.105836330527E+04    0.12392E-05   -0.64725E-06  2968   0.360E-03    0.612E-03
RMM:   6    -0.105836330539E+04   -0.12339E-06   -0.18742E-06  1987   0.272E-03    0.483E-03
RMM:   7    -0.105836330542E+04   -0.26455E-07   -0.60125E-07  1295   0.201E-03    0.185E-03
RMM:   8    -0.105836330542E+04   -0.64174E-08   -0.36222E-07  1139   0.203E-03
  21 F= -.10583633E+04 E0= -.10583633E+04  d E =-.174308E-02  mag=    80.0000
       N       E                     dE             d eps       ncg     rms          rms(c)
DAV:   1    -0.105836251670E+04    0.78872E-03   -0.56178E-01  6216   0.890E-01    0.295E-01
RMM:   2    -0.105836428021E+04   -0.17635E-02   -0.15028E-02  6327   0.166E-01    0.173E-01
RMM:   3    -0.105836437987E+04   -0.99663E-04   -0.78404E-04  5393   0.475E-02    0.940E-02
RMM:   4    -0.105836432677E+04    0.53097E-04   -0.16240E-04  3700   0.170E-02    0.445E-02
RMM:   5    -0.105836432375E+04    0.30215E-05   -0.58269E-05  3578   0.107E-02    0.227E-02
RMM:   6    -0.105836432585E+04   -0.21026E-05   -0.17249E-05  3519   0.675E-03    0.119E-02
RMM:   7    -0.105836432680E+04   -0.94387E-06   -0.86982E-06  3234   0.426E-03    0.868E-03
RMM:   8    -0.105836432740E+04   -0.60604E-06   -0.48299E-06  2852   0.361E-03
  22 F= -.10583643E+04 E0= -.10583643E+04  d E =-.102198E-02  mag=    80.0000
