<?xml version="1.0" encoding="ISO-8859-1"?>
<modeling>
 <generator>
  <i name="program" type="string">vasp </i>
  <i name="version" type="string">5.4.1  </i>
  <i name="subversion" type="string">05Feb16 (build Jan 25 2017 20:16:33) complex                          parallel </i>
  <i name="platform" type="string">BWXE6 </i>
  <i name="date" type="string">2019 08 11 </i>
  <i name="time" type="string">11:57:39 </i>
 </generator>
 <incar>
  <i type="string" name="SYSTEM"> STF</i>
  <i type="string" name="PREC">normal</i>
  <i type="string" name="ALGO"> Fast</i>
  <i type="int" name="ISPIN">     2</i>
  <i type="int" name="NELM">    40</i>
  <i type="int" name="NELMIN">     8</i>
  <i type="int" name="IBRION">     2</i>
  <i name="EDIFF">      0.00010000</i>
  <i name="EDIFFG">     -0.03000000</i>
  <i type="int" name="NSW">    30</i>
  <i type="int" name="ISIF">     3</i>
  <i name="ENCUT">    520.00000000</i>
  <i type="int" name="NBANDS">   768</i>
  <v name="MAGMOM">      0.60000000      0.60000000      0.60000000      0.60000000      0.60000000      0.60000000      0.60000000      0.60000000      0.60000000      0.60000000      0.60000000      0.60000000      0.60000000      0.60000000      0.60000000      0.60000000      0.60000000      0.60000000      0.60000000      0.60000000
      0.60000000      0.60000000      0.60000000      0.60000000      0.60000000      0.60000000      0.60000000      0.60000000      0.60000000      0.60000000      0.60000000      0.60000000      0.60000000      0.60000000      0.60000000      0.60000000      0.60000000      0.60000000      0.60000000      0.60000000
      0.60000000      0.60000000      0.60000000      0.60000000      0.60000000      0.60000000      0.60000000      0.60000000      5.00000000      5.00000000      5.00000000      5.00000000      5.00000000      5.00000000      5.00000000      5.00000000      5.00000000      5.00000000      5.00000000      5.00000000
      5.00000000      5.00000000      5.00000000      5.00000000      0.60000000      0.60000000      0.60000000      0.60000000      0.60000000      0.60000000      0.60000000      0.60000000      0.60000000      0.60000000      0.60000000      0.60000000      0.60000000      0.60000000      0.60000000      0.60000000
      0.60000000      0.60000000      0.60000000      0.60000000      0.60000000      0.60000000      0.60000000      0.60000000      0.60000000      0.60000000      0.60000000      0.60000000      0.60000000      0.60000000      0.60000000      0.60000000      0.60000000      0.60000000      0.60000000      0.60000000
      0.60000000      0.60000000      0.60000000      0.60000000      0.60000000      0.60000000      0.60000000      0.60000000      0.60000000      0.60000000      0.60000000      0.60000000      0.60000000      0.60000000      0.60000000      0.60000000      0.60000000      0.60000000      0.60000000      0.60000000
      0.60000000      0.60000000      0.60000000      0.60000000      0.60000000      0.60000000      0.60000000      0.60000000      0.60000000      0.60000000      0.60000000      0.60000000      0.60000000      0.60000000      0.60000000      0.60000000      0.60000000      0.60000000      0.60000000      0.60000000
      0.60000000      0.60000000      0.60000000      0.60000000      0.60000000      0.60000000      0.60000000      0.60000000      0.60000000      0.60000000      0.60000000      0.60000000</v>
  <i type="string" name="LREAL"> Auto</i>
  <i type="int" name="ISMEAR">     0</i>
  <i name="SIGMA">      0.05000000</i>
  <i type="int" name="LMAXMIX">     4</i>
  <v type="int" name="KPOINT_BSE">    -1     0     0     0</v>
  <i type="int" name="NELM">    40</i>
  <i type="logical" name="LDAU"> T  </i>
  <v type="int" name="LDAUTYPE">     2</v>
  <v type="int" name="LDAUL">     0     2     2     0</v>
  <v name="LDAUU">      0.00000000      3.00000000      5.00000000      0.00000000</v>
  <v name="LDAUJ">      0.00000000      0.00000000      0.00000000      0.00000000</v>
  <i type="int" name="LDAUPRINT">     1</i>
 </incar>
 <kpoints>
  <generation param="Monkhorst-Pack">
   <v type="int" name="divisions">       2        2        2 </v>
   <v name="usershift">      0.00000000       0.00000000       0.00000000 </v>
   <v name="genvec1">      0.50000000       0.00000000       0.00000000 </v>
   <v name="genvec2">      0.00000000       0.50000000       0.00000000 </v>
   <v name="genvec3">      0.00000000       0.00000000       0.50000000 </v>
   <v name="shift">      0.50000000       0.50000000       0.50000000 </v>
  </generation>
  <varray name="kpointlist" >
   <v>       0.25000000       0.25000000       0.25000000 </v>
   <v>      -0.25000000       0.25000000       0.25000000 </v>
  </varray>
  <varray name="weights" >
   <v>       0.50000000 </v>
   <v>       0.50000000 </v>
  </varray>
 </kpoints>
 <parameters>
  <separator name="general" >
   <i type="string" name="SYSTEM">STF</i>
   <i type="logical" name="LCOMPAT"> F  </i>
  </separator>
  <separator name="electronic" >
   <i type="string" name="PREC">normal</i>
   <i name="ENMAX">    520.00000000</i>
   <i name="ENAUG">    605.39200000</i>
   <i name="EDIFF">      0.00010000</i>
   <i type="int" name="IALGO">    68</i>
   <i type="int" name="IWAVPR">    11</i>
   <i type="int" name="NBANDS">   768</i>
   <i name="NELECT">   1040.00000000</i>
   <i type="int" name="TURBO">     0</i>
   <i type="int" name="IRESTART">     0</i>
   <i type="int" name="NREBOOT">     0</i>
   <i type="int" name="NMIN">     0</i>
   <i name="EREF">      0.00000000</i>
   <separator name="electronic smearing" >
    <i type="int" name="ISMEAR">     0</i>
    <i name="SIGMA">      0.05000000</i>
    <i name="KSPACING">      0.50000000</i>
    <i type="logical" name="KGAMMA"> T  </i>
   </separator>
   <separator name="electronic projectors" >
    <i type="logical" name="LREAL"> T  </i>
    <v name="ROPT">     -0.00050000     -0.00050000     -0.00050000     -0.00050000</v>
    <i type="int" name="LMAXPAW">  -100</i>
    <i type="int" name="LMAXMIX">     4</i>
    <i type="logical" name="NLSPLINE"> F  </i>
   </separator>
   <separator name="electronic startup" >
    <i type="int" name="ISTART">     1</i>
    <i type="int" name="ICHARG">     0</i>
    <i type="int" name="INIWAV">     1</i>
   </separator>
   <separator name="electronic spin" >
    <i type="int" name="ISPIN">     2</i>
    <i type="logical" name="LNONCOLLINEAR"> F  </i>
    <v name="MAGMOM">      0.60000000      0.60000000      0.60000000      0.60000000      0.60000000      0.60000000      0.60000000      0.60000000      0.60000000      0.60000000      0.60000000      0.60000000      0.60000000      0.60000000      0.60000000      0.60000000      0.60000000      0.60000000      0.60000000      0.60000000
      0.60000000      0.60000000      0.60000000      0.60000000      0.60000000      0.60000000      0.60000000      0.60000000      0.60000000      0.60000000      0.60000000      0.60000000      0.60000000      0.60000000      0.60000000      0.60000000      0.60000000      0.60000000      0.60000000      0.60000000
      0.60000000      0.60000000      0.60000000      0.60000000      0.60000000      0.60000000      0.60000000      0.60000000      5.00000000      5.00000000      5.00000000      5.00000000      5.00000000      5.00000000      5.00000000      5.00000000      5.00000000      5.00000000      5.00000000      5.00000000
      5.00000000      5.00000000      5.00000000      5.00000000      0.60000000      0.60000000      0.60000000      0.60000000      0.60000000      0.60000000      0.60000000      0.60000000      0.60000000      0.60000000      0.60000000      0.60000000      0.60000000      0.60000000      0.60000000      0.60000000
      0.60000000      0.60000000      0.60000000      0.60000000      0.60000000      0.60000000      0.60000000      0.60000000      0.60000000      0.60000000      0.60000000      0.60000000      0.60000000      0.60000000      0.60000000      0.60000000      0.60000000      0.60000000      0.60000000      0.60000000
      0.60000000      0.60000000      0.60000000      0.60000000      0.60000000      0.60000000      0.60000000      0.60000000      0.60000000      0.60000000      0.60000000      0.60000000      0.60000000      0.60000000      0.60000000      0.60000000      0.60000000      0.60000000      0.60000000      0.60000000
      0.60000000      0.60000000      0.60000000      0.60000000      0.60000000      0.60000000      0.60000000      0.60000000      0.60000000      0.60000000      0.60000000      0.60000000      0.60000000      0.60000000      0.60000000      0.60000000      0.60000000      0.60000000      0.60000000      0.60000000
      0.60000000      0.60000000      0.60000000      0.60000000      0.60000000      0.60000000      0.60000000      0.60000000      0.60000000      0.60000000      0.60000000      0.60000000</v>
    <i name="NUPDOWN">     -1.00000000</i>
    <i type="logical" name="LSORBIT"> F  </i>
    <v name="SAXIS">      0.00000000      0.00000000      1.00000000</v>
    <i type="logical" name="LSPIRAL"> F  </i>
    <v name="QSPIRAL">      0.00000000      0.00000000      0.00000000</v>
    <i type="logical" name="LZEROZ"> F  </i>
   </separator>
   <separator name="electronic exchange-correlation" >
    <i type="logical" name="LASPH"> F  </i>
    <i type="logical" name="LMETAGGA"> F  </i>
   </separator>
   <separator name="electronic convergence" >
    <i type="int" name="NELM">    40</i>
    <i type="int" name="NELMDL">     0</i>
    <i type="int" name="NELMIN">     8</i>
    <i name="ENINI">    520.00000000</i>
    <separator name="electronic convergence detail" >
     <i type="logical" name="LDIAG"> T  </i>
     <i type="logical" name="LSUBROT"> F  </i>
     <i name="WEIMIN">      0.00100000</i>
     <i name="EBREAK">      0.00000003</i>
     <i name="DEPER">      0.30000000</i>
     <i type="int" name="NRMM">     4</i>
     <i name="TIME">      0.40000000</i>
    </separator>
   </separator>
   <separator name="electronic mixer" >
    <i name="AMIX">      0.40000000</i>
    <i name="BMIX">      1.00000000</i>
    <i name="AMIN">      0.10000000</i>
    <i name="AMIX_MAG">      1.60000000</i>
    <i name="BMIX_MAG">      1.00000000</i>
    <separator name="electronic mixer details" >
     <i type="int" name="IMIX">     4</i>
     <i type="logical" name="MIXFIRST"> F  </i>
     <i type="int" name="MAXMIX">   -45</i>
     <i name="WC">    100.00000000</i>
     <i type="int" name="INIMIX">     1</i>
     <i type="int" name="MIXPRE">     1</i>
     <i type="int" name="MREMOVE">     5</i>
    </separator>
   </separator>
   <separator name="electronic dipolcorrection" >
    <i type="logical" name="LDIPOL"> F  </i>
    <i type="logical" name="LMONO"> F  </i>
    <i type="int" name="IDIPOL">     0</i>
    <i name="EPSILON">      1.00000000</i>
    <v name="DIPOL">   -100.00000000   -100.00000000   -100.00000000</v>
    <i name="EFIELD">      0.00000000</i>
   </separator>
  </separator>
  <separator name="grids" >
   <i type="int" name="NGX">    64</i>
   <i type="int" name="NGY">    64</i>
   <i type="int" name="NGZ">    90</i>
   <i type="int" name="NGXF">   128</i>
   <i type="int" name="NGYF">   128</i>
   <i type="int" name="NGZF">   180</i>
   <i type="logical" name="ADDGRID"> F  </i>
  </separator>
  <separator name="ionic" >
   <i type="int" name="NSW">    30</i>
   <i type="int" name="IBRION">     2</i>
   <i type="int" name="ISIF">     3</i>
   <i name="PSTRESS">      0.00000000</i>
   <i name="EDIFFG">     -0.03000000</i>
   <i type="int" name="NFREE">     1</i>
   <i name="POTIM">      0.50000000</i>
   <i name="SMASS">     -3.00000000</i>
   <i name="SCALEE">      1.00000000</i>
  </separator>
  <separator name="ionic md" >
   <i name="TEBEG">      0.00010000</i>
   <i name="TEEND">      0.00010000</i>
   <i type="int" name="NBLOCK">     1</i>
   <i type="int" name="KBLOCK">    30</i>
   <i type="int" name="NPACO">   256</i>
   <i name="APACO">     16.00000000</i>
  </separator>
  <separator name="symmetry" >
   <i type="int" name="ISYM">     2</i>
   <i name="SYMPREC">      0.00001000</i>
  </separator>
  <separator name="dos" >
   <i type="logical" name="LORBIT"> F  </i>
   <v name="RWIGS">     -1.00000000     -1.00000000     -1.00000000     -1.00000000</v>
   <i type="int" name="NEDOS">   301</i>
   <i name="EMIN">     10.00000000</i>
   <i name="EMAX">    -10.00000000</i>
   <i name="EFERMI">      0.00000000</i>
  </separator>
  <separator name="writing" >
   <i type="int" name="NWRITE">     2</i>
   <i type="logical" name="LWAVE"> T  </i>
   <i type="logical" name="LCHARG"> T  </i>
   <i type="logical" name="LPARD"> F  </i>
   <i type="logical" name="LVTOT"> F  </i>
   <i type="logical" name="LVHAR"> F  </i>
   <i type="logical" name="LELF"> F  </i>
   <i type="logical" name="LOPTICS"> F  </i>
   <v name="STM">      0.00000000      0.00000000      0.00000000      0.00000000      0.00000000      0.00000000      0.00000000</v>
  </separator>
  <separator name="performance" >
   <i type="int" name="NPAR">     2</i>
   <i type="int" name="NSIM">     4</i>
   <i type="int" name="NBLK">    -1</i>
   <i type="logical" name="LPLANE"> T  </i>
   <i type="logical" name="LSCALAPACK"> T  </i>
   <i type="logical" name="LSCAAWARE"> F  </i>
   <i type="logical" name="LSCALU"> F  </i>
   <i type="logical" name="LASYNC"> F  </i>
   <i type="logical" name="LORBITALREAL"> F  </i>
  </separator>
  <separator name="miscellaneous" >
   <i type="int" name="IDIOT">     3</i>
   <i type="logical" name="LMUSIC"> F  </i>
   <v name="POMASS">     87.62000000     47.88000000     55.84700000     16.00000000</v>
   <v name="DARWINR">      0.00000000      0.00000000      0.00000000      0.00000000</v>
   <v name="DARWINV">      1.00000000      1.00000000      1.00000000      1.00000000</v>
   <i type="logical" name="LCORR"> T  </i>
  </separator>
  <i type="logical" name="GGA_COMPAT"> T  </i>
  <i type="logical" name="LBERRY"> F  </i>
  <i type="int" name="ICORELEVEL">     0</i>
  <i type="logical" name="LDAU"> T  </i>
  <v type="int" name="LDAUTYPE">     2</v>
  <v type="int" name="LDAUL">     0</v>
  <v name="LDAUU">      0.00000000</v>
  <v name="LDAUJ">      0.00000000</v>
  <i type="int" name="LDAUPRINT">     1</i>
  <i type="int" name="I_CONSTRAINED_M">     0</i>
  <separator name="electronic exchange-correlation" >
   <i type="string" name="GGA">--</i>
   <i type="int" name="VOSKOWN">     0</i>
   <i type="logical" name="LHFCALC"> F  </i>
   <i type="string" name="PRECFOCK"></i>
   <i type="logical" name="LSYMGRAD"> F  </i>
   <i type="logical" name="LHFONE"> F  </i>
   <i type="logical" name="LRHFCALC"> F  </i>
   <i type="logical" name="LTHOMAS"> F  </i>
   <i type="logical" name="LMODELHF"> F  </i>
   <i name="ENCUT4O">     -1.00000000</i>
   <i type="int" name="EXXOEP">     0</i>
   <i type="int" name="FOURORBIT">     0</i>
   <i name="AEXX">      0.00000000</i>
   <i name="HFALPHA">      0.00000000</i>
   <i name="MCALPHA">      0.00000000</i>
   <i name="ALDAX">      1.00000000</i>
   <i name="AGGAX">      1.00000000</i>
   <i name="ALDAC">      1.00000000</i>
   <i name="AGGAC">      1.00000000</i>
   <i type="int" name="NKREDX">     1</i>
   <i type="int" name="NKREDY">     1</i>
   <i type="int" name="NKREDZ">     1</i>
   <i type="logical" name="SHIFTRED"> F  </i>
   <i type="logical" name="ODDONLY"> F  </i>
   <i type="logical" name="EVENONLY"> F  </i>
   <i type="int" name="LMAXFOCK">     0</i>
   <i type="int" name="NMAXFOCKAE">     0</i>
   <i type="logical" name="LFOCKAEDFT"> F  </i>
   <i name="HFSCREEN">      0.00000000</i>
   <i name="HFSCREENC">      0.00000000</i>
   <i type="int" name="NBANDSGWLOW">     0</i>
  </separator>
  <separator name="vdW DFT" >
   <i type="logical" name="LUSE_VDW"> F  </i>
   <i name="Zab_VDW">     -0.84910000</i>
   <i name="PARAM1">      0.12340000</i>
   <i name="PARAM2">      1.00000000</i>
   <i name="PARAM3">      0.00000000</i>
  </separator>
  <separator name="model GW" >
   <i type="int" name="MODEL_GW">     0</i>
   <i name="MODEL_EPS0">      7.92095778</i>
   <i name="MODEL_ALPHA">      1.00000000</i>
  </separator>
  <separator name="linear response parameters" >
   <i type="logical" name="LEPSILON"> F  </i>
   <i type="logical" name="LRPA"> F  </i>
   <i type="logical" name="LNABLA"> F  </i>
   <i type="logical" name="LVEL"> F  </i>
   <i type="int" name="KINTER">     0</i>
   <i name="CSHIFT">      0.10000000</i>
   <i name="OMEGAMAX">     -1.00000000</i>
   <i name="DEG_THRESHOLD">      0.00200000</i>
  </separator>
  <separator name="orbital magnetization" >
   <i type="logical" name="NUCIND"> F  </i>
   <v name="MAGPOS">      0.00000000      0.00000000      0.00000000</v>
   <i type="logical" name="LNICSALL"> T  </i>
   <i type="logical" name="ORBITALMAG"> F  </i>
   <i type="logical" name="LMAGBLOCH"> F  </i>
   <i type="logical" name="LCHIMAG"> F  </i>
   <i type="logical" name="LGAUGE"> T  </i>
   <i type="int" name="MAGATOM">     0</i>
   <v name="MAGDIPOL">      0.00000000      0.00000000      0.00000000</v>
   <v name="AVECCONST">      0.00000000      0.00000000      0.00000000</v>
  </separator>
  <separator name="response functions" >
   <i type="logical" name="LADDER"> F  </i>
   <i type="logical" name="LFXC"> F  </i>
   <i type="logical" name="LHARTREE"> T  </i>
   <i type="int" name="IBSE">     0</i>
   <v type="int" name="KPOINT">    -1     0     0     0</v>
   <i type="logical" name="LTCTE"> F  </i>
   <i type="logical" name="LTETE"> F  </i>
   <i type="logical" name="LTRIPLET"> F  </i>
   <i type="logical" name="LFXCEPS"> F  </i>
   <i type="logical" name="LFXHEG"> F  </i>
   <i type="int" name="NATURALO">     0</i>
   <i type="logical" name="L2ORDER"> F  </i>
   <i type="logical" name="LUSEW"> F  </i>
   <i name="ENCUTGW">     -2.00000000</i>
   <i name="ENCUTGWSOFT">     -2.00000000</i>
   <i name="ENCUTLF">     -1.00000000</i>
   <i type="int" name="LMAXMP2">    -1</i>
   <i name="SCISSOR">      0.00000000</i>
   <i type="int" name="NOMEGA">     0</i>
   <i type="int" name="NOMEGAR">     0</i>
   <i type="int" name="NBANDSGW">    -1</i>
   <i type="int" name="NBANDSO">    -1</i>
   <i type="int" name="NBANDSV">    -1</i>
   <i type="int" name="NELM">    40</i>
   <i type="int" name="NELMHF">     1</i>
   <i type="int" name="DIM">     3</i>
   <i type="int" name="ANTIRES">     0</i>
   <i name="OMEGAMAX">    -30.00000000</i>
   <i name="OMEGAMIN">    -30.00000000</i>
   <i name="OMEGATL">   -200.00000000</i>
   <i type="int" name="OMEGAGRID">     0</i>
   <i name="CSHIFT">     -0.10000000</i>
   <i type="logical" name="SELFENERGY"> F  </i>
   <i type="logical" name="LSPECTRAL"> F  </i>
   <i type="logical" name="LSPECTRALGW"> F  </i>
   <i type="logical" name="LSINGLES"> F  </i>
   <i type="logical" name="LFERMIGW"> F  </i>
   <i type="logical" name="ODDONLYGW"> F  </i>
   <i type="logical" name="EVENONLYGW"> F  </i>
   <i type="int" name="NKREDLFX">     1</i>
   <i type="int" name="NKREDLFY">     1</i>
   <i type="int" name="NKREDLFZ">     1</i>
   <i type="int" name="MAXMEM">  1800</i>
   <i type="int" name="TELESCOPE">     0</i>
   <i type="int" name="TAUPAR">     1</i>
   <i type="int" name="OMEGAPAR">    -1</i>
   <i name="LAMBDA">      1.00000000</i>
  </separator>
  <separator name="External order field" >
   <i name="OFIELD_KAPPA">      0.00000000</i>
   <v name="OFIELD_K">      0.00000000      0.00000000      0.00000000</v>
   <i name="OFIELD_Q6_NEAR">      0.00000000</i>
   <i name="OFIELD_Q6_FAR">      0.00000000</i>
   <i name="OFIELD_A">      0.00000000</i>
  </separator>
 </parameters>
 <atominfo>
  <atoms>     152 </atoms>
  <types>       4 </types>
  <array name="atoms" >
   <dimension dim="1">ion</dimension>
   <field type="string">element</field>
   <field type="int">atomtype</field>
   <set>
    <rc><c>Sr</c><c>   1</c></rc>
    <rc><c>Sr</c><c>   1</c></rc>
    <rc><c>Sr</c><c>   1</c></rc>
    <rc><c>Sr</c><c>   1</c></rc>
    <rc><c>Sr</c><c>   1</c></rc>
    <rc><c>Sr</c><c>   1</c></rc>
    <rc><c>Sr</c><c>   1</c></rc>
    <rc><c>Sr</c><c>   1</c></rc>
    <rc><c>Sr</c><c>   1</c></rc>
    <rc><c>Sr</c><c>   1</c></rc>
    <rc><c>Sr</c><c>   1</c></rc>
    <rc><c>Sr</c><c>   1</c></rc>
    <rc><c>Sr</c><c>   1</c></rc>
    <rc><c>Sr</c><c>   1</c></rc>
    <rc><c>Sr</c><c>   1</c></rc>
    <rc><c>Sr</c><c>   1</c></rc>
    <rc><c>Sr</c><c>   1</c></rc>
    <rc><c>Sr</c><c>   1</c></rc>
    <rc><c>Sr</c><c>   1</c></rc>
    <rc><c>Sr</c><c>   1</c></rc>
    <rc><c>Sr</c><c>   1</c></rc>
    <rc><c>Sr</c><c>   1</c></rc>
    <rc><c>Sr</c><c>   1</c></rc>
    <rc><c>Sr</c><c>   1</c></rc>
    <rc><c>Sr</c><c>   1</c></rc>
    <rc><c>Sr</c><c>   1</c></rc>
    <rc><c>Sr</c><c>   1</c></rc>
    <rc><c>Sr</c><c>   1</c></rc>
    <rc><c>Sr</c><c>   1</c></rc>
    <rc><c>Sr</c><c>   1</c></rc>
    <rc><c>Sr</c><c>   1</c></rc>
    <rc><c>Sr</c><c>   1</c></rc>
    <rc><c>Ti</c><c>   2</c></rc>
    <rc><c>Ti</c><c>   2</c></rc>
    <rc><c>Ti</c><c>   2</c></rc>
    <rc><c>Ti</c><c>   2</c></rc>
    <rc><c>Ti</c><c>   2</c></rc>
    <rc><c>Ti</c><c>   2</c></rc>
    <rc><c>Ti</c><c>   2</c></rc>
    <rc><c>Ti</c><c>   2</c></rc>
    <rc><c>Ti</c><c>   2</c></rc>
    <rc><c>Ti</c><c>   2</c></rc>
    <rc><c>Ti</c><c>   2</c></rc>
    <rc><c>Ti</c><c>   2</c></rc>
    <rc><c>Ti</c><c>   2</c></rc>
    <rc><c>Ti</c><c>   2</c></rc>
    <rc><c>Ti</c><c>   2</c></rc>
    <rc><c>Ti</c><c>   2</c></rc>
    <rc><c>Fe</c><c>   3</c></rc>
    <rc><c>Fe</c><c>   3</c></rc>
    <rc><c>Fe</c><c>   3</c></rc>
    <rc><c>Fe</c><c>   3</c></rc>
    <rc><c>Fe</c><c>   3</c></rc>
    <rc><c>Fe</c><c>   3</c></rc>
    <rc><c>Fe</c><c>   3</c></rc>
    <rc><c>Fe</c><c>   3</c></rc>
    <rc><c>Fe</c><c>   3</c></rc>
    <rc><c>Fe</c><c>   3</c></rc>
    <rc><c>Fe</c><c>   3</c></rc>
    <rc><c>Fe</c><c>   3</c></rc>
    <rc><c>Fe</c><c>   3</c></rc>
    <rc><c>Fe</c><c>   3</c></rc>
    <rc><c>Fe</c><c>   3</c></rc>
    <rc><c>Fe</c><c>   3</c></rc>
    <rc><c>O </c><c>   4</c></rc>
    <rc><c>O </c><c>   4</c></rc>
    <rc><c>O </c><c>   4</c></rc>
    <rc><c>O </c><c>   4</c></rc>
    <rc><c>O </c><c>   4</c></rc>
    <rc><c>O </c><c>   4</c></rc>
    <rc><c>O </c><c>   4</c></rc>
    <rc><c>O </c><c>   4</c></rc>
    <rc><c>O </c><c>   4</c></rc>
    <rc><c>O </c><c>   4</c></rc>
    <rc><c>O </c><c>   4</c></rc>
    <rc><c>O </c><c>   4</c></rc>
    <rc><c>O </c><c>   4</c></rc>
    <rc><c>O </c><c>   4</c></rc>
    <rc><c>O </c><c>   4</c></rc>
    <rc><c>O </c><c>   4</c></rc>
    <rc><c>O </c><c>   4</c></rc>
    <rc><c>O </c><c>   4</c></rc>
    <rc><c>O </c><c>   4</c></rc>
    <rc><c>O </c><c>   4</c></rc>
    <rc><c>O </c><c>   4</c></rc>
    <rc><c>O </c><c>   4</c></rc>
    <rc><c>O </c><c>   4</c></rc>
    <rc><c>O </c><c>   4</c></rc>
    <rc><c>O </c><c>   4</c></rc>
    <rc><c>O </c><c>   4</c></rc>
    <rc><c>O </c><c>   4</c></rc>
    <rc><c>O </c><c>   4</c></rc>
    <rc><c>O </c><c>   4</c></rc>
    <rc><c>O </c><c>   4</c></rc>
    <rc><c>O </c><c>   4</c></rc>
    <rc><c>O </c><c>   4</c></rc>
    <rc><c>O </c><c>   4</c></rc>
    <rc><c>O </c><c>   4</c></rc>
    <rc><c>O </c><c>   4</c></rc>
    <rc><c>O </c><c>   4</c></rc>
    <rc><c>O </c><c>   4</c></rc>
    <rc><c>O </c><c>   4</c></rc>
    <rc><c>O </c><c>   4</c></rc>
    <rc><c>O </c><c>   4</c></rc>
    <rc><c>O </c><c>   4</c></rc>
    <rc><c>O </c><c>   4</c></rc>
    <rc><c>O </c><c>   4</c></rc>
    <rc><c>O </c><c>   4</c></rc>
    <rc><c>O </c><c>   4</c></rc>
    <rc><c>O </c><c>   4</c></rc>
    <rc><c>O </c><c>   4</c></rc>
    <rc><c>O </c><c>   4</c></rc>
    <rc><c>O </c><c>   4</c></rc>
    <rc><c>O </c><c>   4</c></rc>
    <rc><c>O </c><c>   4</c></rc>
    <rc><c>O </c><c>   4</c></rc>
    <rc><c>O </c><c>   4</c></rc>
    <rc><c>O </c><c>   4</c></rc>
    <rc><c>O </c><c>   4</c></rc>
    <rc><c>O </c><c>   4</c></rc>
    <rc><c>O </c><c>   4</c></rc>
    <rc><c>O </c><c>   4</c></rc>
    <rc><c>O </c><c>   4</c></rc>
    <rc><c>O </c><c>   4</c></rc>
    <rc><c>O </c><c>   4</c></rc>
    <rc><c>O </c><c>   4</c></rc>
    <rc><c>O </c><c>   4</c></rc>
    <rc><c>O </c><c>   4</c></rc>
    <rc><c>O </c><c>   4</c></rc>
    <rc><c>O </c><c>   4</c></rc>
    <rc><c>O </c><c>   4</c></rc>
    <rc><c>O </c><c>   4</c></rc>
    <rc><c>O </c><c>   4</c></rc>
    <rc><c>O </c><c>   4</c></rc>
    <rc><c>O </c><c>   4</c></rc>
    <rc><c>O </c><c>   4</c></rc>
    <rc><c>O </c><c>   4</c></rc>
    <rc><c>O </c><c>   4</c></rc>
    <rc><c>O </c><c>   4</c></rc>
    <rc><c>O </c><c>   4</c></rc>
    <rc><c>O </c><c>   4</c></rc>
    <rc><c>O </c><c>   4</c></rc>
    <rc><c>O </c><c>   4</c></rc>
    <rc><c>O </c><c>   4</c></rc>
    <rc><c>O </c><c>   4</c></rc>
    <rc><c>O </c><c>   4</c></rc>
    <rc><c>O </c><c>   4</c></rc>
    <rc><c>O </c><c>   4</c></rc>
    <rc><c>O </c><c>   4</c></rc>
    <rc><c>O </c><c>   4</c></rc>
    <rc><c>O </c><c>   4</c></rc>
    <rc><c>O </c><c>   4</c></rc>
   </set>
  </array>
  <array name="atomtypes" >
   <dimension dim="1">type</dimension>
   <field type="int">atomspertype</field>
   <field type="string">element</field>
   <field>mass</field>
   <field>valence</field>
   <field type="string">pseudopotential</field>
   <set>
    <rc><c>  32</c><c>Sr</c><c>     87.62000000</c><c>     10.00000000</c><c>  PAW_PBE Sr_sv 07Sep2000               </c></rc>
    <rc><c>  16</c><c>Ti</c><c>     47.88000000</c><c>      4.00000000</c><c>  PAW_PBE Ti 08Apr2002                  </c></rc>
    <rc><c>  16</c><c>Fe</c><c>     55.84700000</c><c>      8.00000000</c><c>  PAW_PBE Fe 06Sep2000                  </c></rc>
    <rc><c>  88</c><c>O </c><c>     16.00000000</c><c>      6.00000000</c><c>  PAW_PBE O 08Apr2002                   </c></rc>
   </set>
  </array>
 </atominfo>
 <structure name="initialpos" >
  <crystal>
   <varray name="basis" >
    <v>      11.25162033       0.01093657       0.00000000 </v>
    <v>       0.01106555      11.32063327       0.00000000 </v>
    <v>       0.00000000       0.00000000      15.75377570 </v>
   </varray>
   <i name="volume">   2006.64263662 </i>
   <varray name="rec_basis" >
    <v>       0.08887617      -0.00008687       0.00000000 </v>
    <v>      -0.00008586       0.08833436       0.00000000 </v>
    <v>       0.00000000       0.00000000       0.06347685 </v>
   </varray>
  </crystal>
  <varray name="positions" >
   <v>       0.99359014       0.24690915       0.11705209 </v>
   <v>       0.00820837       0.25280338       0.61777792 </v>
   <v>       0.99179163       0.74719662       0.11777792 </v>
   <v>       0.00640986       0.75309085       0.61705209 </v>
   <v>       0.50406659       0.24965817       0.12067947 </v>
   <v>       0.49439600       0.24958322       0.62172358 </v>
   <v>       0.50560400       0.75041678       0.12172358 </v>
   <v>       0.49593341       0.75034183       0.62067947 </v>
   <v>       0.99179163       0.24719662       0.38222208 </v>
   <v>       0.00640986       0.25309085       0.88294791 </v>
   <v>       0.99359014       0.74690915       0.38294791 </v>
   <v>       0.00820837       0.75280338       0.88222208 </v>
   <v>       0.50560400       0.25041678       0.37827642 </v>
   <v>       0.49593341       0.25034183       0.87932053 </v>
   <v>       0.50406659       0.74965817       0.37932053 </v>
   <v>       0.49439600       0.74958322       0.87827642 </v>
   <v>       0.24619994       0.00600419       0.11334948 </v>
   <v>       0.24868455       0.99402826       0.62088061 </v>
   <v>       0.24711126       0.50067016       0.11450081 </v>
   <v>       0.24891697       0.49931798       0.62224828 </v>
   <v>       0.75131545       0.00597174       0.12088061 </v>
   <v>       0.75380006       0.99399581       0.61334948 </v>
   <v>       0.75108303       0.50068202       0.12224828 </v>
   <v>       0.75288874       0.49932984       0.61450081 </v>
   <v>       0.24711126       0.00067016       0.38549919 </v>
   <v>       0.24891697       0.99931798       0.87775172 </v>
   <v>       0.24619994       0.50600419       0.38665052 </v>
   <v>       0.24868455       0.49402826       0.87911939 </v>
   <v>       0.75108303       0.00068202       0.37775172 </v>
   <v>       0.75288874       0.99932984       0.88549919 </v>
   <v>       0.75131545       0.50597174       0.37911939 </v>
   <v>       0.75380006       0.49399581       0.88665052 </v>
   <v>       0.00100083       0.99758796       0.49945599 </v>
   <v>       0.00100083       0.49758796       0.00054401 </v>
   <v>       0.99899917       0.50241204       0.50054401 </v>
   <v>       0.49946639       0.99682039       0.49971001 </v>
   <v>       0.49946639       0.49682039       0.00028999 </v>
   <v>       0.50053361       0.00317961       0.99971001 </v>
   <v>       0.75188442       0.24236325       0.24832769 </v>
   <v>       0.24811558       0.25763675       0.75167231 </v>
   <v>       0.99899917       0.00241204       0.99945599 </v>
   <v>       0.75188442       0.74236325       0.25167231 </v>
   <v>       0.50053361       0.50317961       0.50028999 </v>
   <v>       0.24811558       0.75763675       0.74832769 </v>
   <v>       0.25064099       0.74929336       0.00148043 </v>
   <v>       0.74935901       0.75070664       0.99851957 </v>
   <v>       0.25064099       0.24929336       0.49851957 </v>
   <v>       0.74935901       0.25070664       0.50148043 </v>
   <v>       0.24992427       0.24819198       0.00090703 </v>
   <v>       0.75007573       0.25180802       0.99909297 </v>
   <v>       0.24992427       0.74819198       0.49909297 </v>
   <v>       0.75007573       0.75180802       0.50090703 </v>
   <v>       0.01176989       0.01329945       0.74973779 </v>
   <v>       0.01176989       0.51329945       0.75026221 </v>
   <v>       0.98823011       0.48670055       0.25026221 </v>
   <v>       0.98823011       0.98670055       0.24973779 </v>
   <v>       0.25497915       0.29102361       0.25170762 </v>
   <v>       0.74502085       0.20897639       0.74829238 </v>
   <v>       0.74502085       0.70897639       0.75170762 </v>
   <v>       0.25497915       0.79102361       0.24829238 </v>
   <v>       0.47677963       0.50825677       0.75031636 </v>
   <v>       0.52322037       0.99174323       0.24968364 </v>
   <v>       0.47677963       0.00825677       0.74968364 </v>
   <v>       0.52322037       0.49174323       0.25031636 </v>
   <v>       0.00149131       0.01765363       0.12580880 </v>
   <v>       0.99850869       0.98234637       0.62580880 </v>
   <v>       0.00524608       0.51901726       0.12662686 </v>
   <v>       0.99475392       0.48098274       0.62662686 </v>
   <v>       0.49698076       0.01521914       0.12685949 </v>
   <v>       0.50301924       0.98478086       0.62685949 </v>
   <v>       0.49759254       0.51583023       0.12701613 </v>
   <v>       0.50240746       0.48416977       0.62701613 </v>
   <v>       0.00524608       0.01901726       0.37337314 </v>
   <v>       0.99475392       0.98098274       0.87337314 </v>
   <v>       0.00149131       0.51765363       0.37419120 </v>
   <v>       0.99850869       0.48234637       0.87419120 </v>
   <v>       0.49759254       0.01583023       0.37298387 </v>
   <v>       0.50240746       0.98416977       0.87298387 </v>
   <v>       0.49698076       0.51521914       0.37314051 </v>
   <v>       0.50301924       0.48478086       0.87314051 </v>
   <v>       0.24310546       0.22354992       0.36276316 </v>
   <v>       0.24862186       0.25940886       0.87562987 </v>
   <v>       0.23818695       0.72135725       0.35635066 </v>
   <v>       0.24840285       0.76156107       0.87820270 </v>
   <v>       0.75159715       0.23843893       0.37820270 </v>
   <v>       0.76181305       0.27864275       0.85635066 </v>
   <v>       0.75137814       0.74059114       0.37562987 </v>
   <v>       0.75689454       0.77645008       0.86276316 </v>
   <v>       0.23818695       0.22135725       0.14364934 </v>
   <v>       0.24840285       0.26156107       0.62179730 </v>
   <v>       0.24310546       0.72354992       0.13723684 </v>
   <v>       0.24862186       0.75940886       0.62437013 </v>
   <v>       0.75137814       0.24059114       0.12437013 </v>
   <v>       0.75689454       0.27645008       0.63723684 </v>
   <v>       0.75159715       0.73843893       0.12179730 </v>
   <v>       0.76181305       0.77864275       0.64364934 </v>
   <v>       0.60495202       0.14788078       0.25019739 </v>
   <v>       0.85783553       0.10360239       0.25090452 </v>
   <v>       0.15493719       0.42570443       0.25149149 </v>
   <v>       0.40616997       0.35987852       0.24964343 </v>
   <v>       0.65969969       0.39399345       0.25194140 </v>
   <v>       0.90396596       0.34251454       0.25015905 </v>
   <v>       0.60495202       0.64788078       0.24980261 </v>
   <v>       0.85783553       0.60360239       0.24909548 </v>
   <v>       0.15493719       0.92570443       0.24850851 </v>
   <v>       0.40616997       0.85987852       0.25035657 </v>
   <v>       0.65969969       0.89399345       0.24805860 </v>
   <v>       0.90396596       0.84251454       0.24984095 </v>
   <v>       0.13203553       0.11774686       0.50737425 </v>
   <v>       0.37936380       0.12931436       0.50433775 </v>
   <v>       0.63075267       0.12339095       0.50962777 </v>
   <v>       0.88149863       0.13417176       0.50997462 </v>
   <v>       0.11850137       0.36582824       0.49002538 </v>
   <v>       0.36924733       0.37660905       0.49037223 </v>
   <v>       0.62063620       0.37068564       0.49566225 </v>
   <v>       0.86796447       0.38225314       0.49262575 </v>
   <v>       0.12986997       0.61568653       0.50808370 </v>
   <v>       0.37950301       0.62758047       0.50436552 </v>
   <v>       0.62960299       0.62223171       0.50930058 </v>
   <v>       0.88106287       0.63239530       0.50986512 </v>
   <v>       0.11893713       0.86760470       0.49013488 </v>
   <v>       0.37039701       0.87776829       0.49069942 </v>
   <v>       0.62049699       0.87241953       0.49563448 </v>
   <v>       0.87013003       0.88431347       0.49191630 </v>
   <v>       0.09603404       0.15748546       0.74984095 </v>
   <v>       0.34030031       0.10600655       0.74805860 </v>
   <v>       0.59383003       0.14012148       0.75035657 </v>
   <v>       0.84506281       0.07429557       0.74850851 </v>
   <v>       0.14216447       0.39639761       0.74909548 </v>
   <v>       0.39504798       0.35211922       0.74980261 </v>
   <v>       0.09603404       0.65748546       0.75015905 </v>
   <v>       0.34030031       0.60600655       0.75194140 </v>
   <v>       0.59383003       0.64012148       0.74964343 </v>
   <v>       0.84506281       0.57429557       0.75149149 </v>
   <v>       0.14216447       0.89639761       0.75090452 </v>
   <v>       0.39504798       0.85211922       0.75019739 </v>
   <v>       0.12986997       0.11568653       0.99191630 </v>
   <v>       0.37950301       0.12758047       0.99563448 </v>
   <v>       0.62960299       0.12223171       0.99069942 </v>
   <v>       0.88106287       0.13239530       0.99013488 </v>
   <v>       0.11893713       0.36760470       0.00986512 </v>
   <v>       0.37039701       0.37776829       0.00930058 </v>
   <v>       0.62049699       0.37241953       0.00436552 </v>
   <v>       0.87013003       0.38431347       0.00808370 </v>
   <v>       0.13203553       0.61774686       0.99262575 </v>
   <v>       0.37936380       0.62931436       0.99566225 </v>
   <v>       0.63075267       0.62339095       0.99037223 </v>
   <v>       0.88149863       0.63417176       0.99002538 </v>
   <v>       0.11850137       0.86582824       0.00997462 </v>
   <v>       0.36924733       0.87660905       0.00962777 </v>
   <v>       0.62063620       0.87068564       0.00433775 </v>
   <v>       0.86796447       0.88225314       0.00737425 </v>
  </varray>
 </structure>
 <calculation>
  <scstep>
   <time name="dav">  153.98  153.99</time>
   <time name="total">  156.35  156.41</time>
   <energy>
    <i name="alphaZ">   5612.47792055 </i>
    <i name="ewald"> -62262.14251628 </i>
    <i name="hartreedc"> -17321.35875797 </i>
    <i name="XCdc">   3186.97458547 </i>
    <i name="pawpsdc"> 116116.29433082 </i>
    <i name="pawaedc">-115319.66880591 </i>
    <i name="eentropy">     -0.00000000 </i>
    <i name="bandstr">  -7121.04433539 </i>
    <i name="atom">  76050.17612637 </i>
    <i name="e_fr_energy">  -1058.29145234 </i>
    <i name="e_wo_entrp">  -1058.29145234 </i>
    <i name="e_0_energy">  -1058.29145234 </i>
   </energy>
  </scstep>
  <scstep>
   <time name="diag">   16.63   16.63</time>
   <time name="diis">   15.99   15.99</time>
   <time name="orth">    9.43    9.43</time>
   <time name="total">   44.44   44.45</time>
   <energy>
    <i name="e_fr_energy">  -1058.29145777 </i>
    <i name="e_wo_entrp">  -1058.29145777 </i>
    <i name="e_0_energy">  -1058.29145777 </i>
   </energy>
  </scstep>
  <scstep>
   <time name="diag">   16.63   16.63</time>
   <time name="diis">   15.74   15.74</time>
   <time name="orth">    9.44    9.44</time>
   <time name="total">   44.19   44.21</time>
   <energy>
    <i name="e_fr_energy">  -1058.29145950 </i>
    <i name="e_wo_entrp">  -1058.29145950 </i>
    <i name="e_0_energy">  -1058.29145950 </i>
   </energy>
  </scstep>
  <scstep>
   <time name="diag">   16.60   16.60</time>
   <time name="diis">   15.19   15.20</time>
   <time name="orth">    9.42    9.42</time>
   <time name="total">   43.60   43.64</time>
   <energy>
    <i name="e_fr_energy">  -1058.29146469 </i>
    <i name="e_wo_entrp">  -1058.29146469 </i>
    <i name="e_0_energy">  -1058.29146469 </i>
   </energy>
  </scstep>
  <scstep>
   <time name="diag">   16.66   16.66</time>
   <time name="diis">   14.79   14.79</time>
   <time name="orth">    9.44    9.44</time>
   <time name="total">   43.27   43.29</time>
   <energy>
    <i name="e_fr_energy">  -1058.29146652 </i>
    <i name="e_wo_entrp">  -1058.29146652 </i>
    <i name="e_0_energy">  -1058.29146652 </i>
   </energy>
  </scstep>
  <scstep>
   <time name="diag">   16.58   16.58</time>
   <time name="diis">   14.07   14.07</time>
   <time name="orth">    9.44    9.44</time>
   <time name="total">   42.49   42.58</time>
   <energy>
    <i name="e_fr_energy">  -1058.29146736 </i>
    <i name="e_wo_entrp">  -1058.29146736 </i>
    <i name="e_0_energy">  -1058.29146736 </i>
   </energy>
  </scstep>
  <scstep>
   <time name="diag">   16.60   16.60</time>
   <time name="diis">   13.45   13.45</time>
   <time name="orth">    9.42    9.41</time>
   <time name="total">   41.84   41.87</time>
   <energy>
    <i name="e_fr_energy">  -1058.29146762 </i>
    <i name="e_wo_entrp">  -1058.29146762 </i>
    <i name="e_0_energy">  -1058.29146762 </i>
   </energy>
  </scstep>
  <scstep>
   <time name="diag">   16.60   16.60</time>
   <time name="diis">   12.72   12.72</time>
   <time name="orth">    9.42    9.42</time>
   <time name="total">   39.31   39.35</time>
   <energy>
    <i name="alphaZ">   5612.47792055 </i>
    <i name="ewald"> -62262.14251628 </i>
    <i name="hartreedc"> -17321.29990380 </i>
    <i name="XCdc">   3186.96792602 </i>
    <i name="pawpsdc"> 116107.67548124 </i>
    <i name="pawaedc">-115311.04392219 </i>
    <i name="eentropy">     -0.00000000 </i>
    <i name="bandstr">  -7121.10257975 </i>
    <i name="atom">  76050.17612637 </i>
    <i name="e_fr_energy">  -1058.29146784 </i>
    <i name="e_wo_entrp">  -1058.29146784 </i>
    <i name="e_0_energy">  -1058.29146784 </i>
   </energy>
  </scstep>
  <structure>
   <crystal>
    <varray name="basis" >
     <v>      11.25162033       0.01093657       0.00000000 </v>
     <v>       0.01106555      11.32063327       0.00000000 </v>
     <v>       0.00000000       0.00000000      15.75377570 </v>
    </varray>
    <i name="volume">   2006.64263662 </i>
    <varray name="rec_basis" >
     <v>       0.08887617      -0.00008687       0.00000000 </v>
     <v>      -0.00008586       0.08833436       0.00000000 </v>
     <v>       0.00000000       0.00000000       0.06347685 </v>
    </varray>
   </crystal>
   <varray name="positions" >
    <v>       0.99359014       0.24690915       0.11705209 </v>
    <v>       0.00820837       0.25280338       0.61777792 </v>
    <v>       0.99179163       0.74719662       0.11777792 </v>
    <v>       0.00640986       0.75309085       0.61705209 </v>
    <v>       0.50406659       0.24965817       0.12067947 </v>
    <v>       0.49439600       0.24958322       0.62172358 </v>
    <v>       0.50560400       0.75041678       0.12172358 </v>
    <v>       0.49593341       0.75034183       0.62067947 </v>
    <v>       0.99179163       0.24719662       0.38222208 </v>
    <v>       0.00640986       0.25309085       0.88294791 </v>
    <v>       0.99359014       0.74690915       0.38294791 </v>
    <v>       0.00820837       0.75280338       0.88222208 </v>
    <v>       0.50560400       0.25041678       0.37827642 </v>
    <v>       0.49593341       0.25034183       0.87932053 </v>
    <v>       0.50406659       0.74965817       0.37932053 </v>
    <v>       0.49439600       0.74958322       0.87827642 </v>
    <v>       0.24619994       0.00600419       0.11334948 </v>
    <v>       0.24868455       0.99402826       0.62088061 </v>
    <v>       0.24711126       0.50067016       0.11450081 </v>
    <v>       0.24891697       0.49931798       0.62224828 </v>
    <v>       0.75131545       0.00597174       0.12088061 </v>
    <v>       0.75380006       0.99399581       0.61334948 </v>
    <v>       0.75108303       0.50068202       0.12224828 </v>
    <v>       0.75288874       0.49932984       0.61450081 </v>
    <v>       0.24711126       0.00067016       0.38549919 </v>
    <v>       0.24891697       0.99931798       0.87775172 </v>
    <v>       0.24619994       0.50600419       0.38665052 </v>
    <v>       0.24868455       0.49402826       0.87911939 </v>
    <v>       0.75108303       0.00068202       0.37775172 </v>
    <v>       0.75288874       0.99932984       0.88549919 </v>
    <v>       0.75131545       0.50597174       0.37911939 </v>
    <v>       0.75380006       0.49399581       0.88665052 </v>
    <v>       0.00100083       0.99758796       0.49945599 </v>
    <v>       0.00100083       0.49758796       0.00054401 </v>
    <v>       0.99899917       0.50241204       0.50054401 </v>
    <v>       0.49946639       0.99682039       0.49971001 </v>
    <v>       0.49946639       0.49682039       0.00028999 </v>
    <v>       0.50053361       0.00317961       0.99971001 </v>
    <v>       0.75188442       0.24236325       0.24832769 </v>
    <v>       0.24811558       0.25763675       0.75167231 </v>
    <v>       0.99899917       0.00241204       0.99945599 </v>
    <v>       0.75188442       0.74236325       0.25167231 </v>
    <v>       0.50053361       0.50317961       0.50028999 </v>
    <v>       0.24811558       0.75763675       0.74832769 </v>
    <v>       0.25064099       0.74929336       0.00148043 </v>
    <v>       0.74935901       0.75070664       0.99851957 </v>
    <v>       0.25064099       0.24929336       0.49851957 </v>
    <v>       0.74935901       0.25070664       0.50148043 </v>
    <v>       0.24992427       0.24819198       0.00090703 </v>
    <v>       0.75007573       0.25180802       0.99909297 </v>
    <v>       0.24992427       0.74819198       0.49909297 </v>
    <v>       0.75007573       0.75180802       0.50090703 </v>
    <v>       0.01176989       0.01329945       0.74973779 </v>
    <v>       0.01176989       0.51329945       0.75026221 </v>
    <v>       0.98823011       0.48670055       0.25026221 </v>
    <v>       0.98823011       0.98670055       0.24973779 </v>
    <v>       0.25497915       0.29102361       0.25170762 </v>
    <v>       0.74502085       0.20897639       0.74829238 </v>
    <v>       0.74502085       0.70897639       0.75170762 </v>
    <v>       0.25497915       0.79102361       0.24829238 </v>
    <v>       0.47677963       0.50825677       0.75031636 </v>
    <v>       0.52322037       0.99174323       0.24968364 </v>
    <v>       0.47677963       0.00825677       0.74968364 </v>
    <v>       0.52322037       0.49174323       0.25031636 </v>
    <v>       0.00149131       0.01765363       0.12580880 </v>
    <v>       0.99850869       0.98234637       0.62580880 </v>
    <v>       0.00524608       0.51901726       0.12662686 </v>
    <v>       0.99475392       0.48098274       0.62662686 </v>
    <v>       0.49698076       0.01521914       0.12685949 </v>
    <v>       0.50301924       0.98478086       0.62685949 </v>
    <v>       0.49759254       0.51583023       0.12701613 </v>
    <v>       0.50240746       0.48416977       0.62701613 </v>
    <v>       0.00524608       0.01901726       0.37337314 </v>
    <v>       0.99475392       0.98098274       0.87337314 </v>
    <v>       0.00149131       0.51765363       0.37419120 </v>
    <v>       0.99850869       0.48234637       0.87419120 </v>
    <v>       0.49759254       0.01583023       0.37298387 </v>
    <v>       0.50240746       0.98416977       0.87298387 </v>
    <v>       0.49698076       0.51521914       0.37314051 </v>
    <v>       0.50301924       0.48478086       0.87314051 </v>
    <v>       0.24310546       0.22354992       0.36276316 </v>
    <v>       0.24862186       0.25940886       0.87562987 </v>
    <v>       0.23818695       0.72135725       0.35635066 </v>
    <v>       0.24840285       0.76156107       0.87820270 </v>
    <v>       0.75159715       0.23843893       0.37820270 </v>
    <v>       0.76181305       0.27864275       0.85635066 </v>
    <v>       0.75137814       0.74059114       0.37562987 </v>
    <v>       0.75689454       0.77645008       0.86276316 </v>
    <v>       0.23818695       0.22135725       0.14364934 </v>
    <v>       0.24840285       0.26156107       0.62179730 </v>
    <v>       0.24310546       0.72354992       0.13723684 </v>
    <v>       0.24862186       0.75940886       0.62437013 </v>
    <v>       0.75137814       0.24059114       0.12437013 </v>
    <v>       0.75689454       0.27645008       0.63723684 </v>
    <v>       0.75159715       0.73843893       0.12179730 </v>
    <v>       0.76181305       0.77864275       0.64364934 </v>
    <v>       0.60495202       0.14788078       0.25019739 </v>
    <v>       0.85783553       0.10360239       0.25090452 </v>
    <v>       0.15493719       0.42570443       0.25149149 </v>
    <v>       0.40616997       0.35987852       0.24964343 </v>
    <v>       0.65969969       0.39399345       0.25194140 </v>
    <v>       0.90396596       0.34251454       0.25015905 </v>
    <v>       0.60495202       0.64788078       0.24980261 </v>
    <v>       0.85783553       0.60360239       0.24909548 </v>
    <v>       0.15493719       0.92570443       0.24850851 </v>
    <v>       0.40616997       0.85987852       0.25035657 </v>
    <v>       0.65969969       0.89399345       0.24805860 </v>
    <v>       0.90396596       0.84251454       0.24984095 </v>
    <v>       0.13203553       0.11774686       0.50737425 </v>
    <v>       0.37936380       0.12931436       0.50433775 </v>
    <v>       0.63075267       0.12339095       0.50962777 </v>
    <v>       0.88149863       0.13417176       0.50997462 </v>
    <v>       0.11850137       0.36582824       0.49002538 </v>
    <v>       0.36924733       0.37660905       0.49037223 </v>
    <v>       0.62063620       0.37068564       0.49566225 </v>
    <v>       0.86796447       0.38225314       0.49262575 </v>
    <v>       0.12986997       0.61568653       0.50808370 </v>
    <v>       0.37950301       0.62758047       0.50436552 </v>
    <v>       0.62960299       0.62223171       0.50930058 </v>
    <v>       0.88106287       0.63239530       0.50986512 </v>
    <v>       0.11893713       0.86760470       0.49013488 </v>
    <v>       0.37039701       0.87776829       0.49069942 </v>
    <v>       0.62049699       0.87241953       0.49563448 </v>
    <v>       0.87013003       0.88431347       0.49191630 </v>
    <v>       0.09603404       0.15748546       0.74984095 </v>
    <v>       0.34030031       0.10600655       0.74805860 </v>
    <v>       0.59383003       0.14012148       0.75035657 </v>
    <v>       0.84506281       0.07429557       0.74850851 </v>
    <v>       0.14216447       0.39639761       0.74909548 </v>
    <v>       0.39504798       0.35211922       0.74980261 </v>
    <v>       0.09603404       0.65748546       0.75015905 </v>
    <v>       0.34030031       0.60600655       0.75194140 </v>
    <v>       0.59383003       0.64012148       0.74964343 </v>
    <v>       0.84506281       0.57429557       0.75149149 </v>
    <v>       0.14216447       0.89639761       0.75090452 </v>
    <v>       0.39504798       0.85211922       0.75019739 </v>
    <v>       0.12986997       0.11568653       0.99191630 </v>
    <v>       0.37950301       0.12758047       0.99563448 </v>
    <v>       0.62960299       0.12223171       0.99069942 </v>
    <v>       0.88106287       0.13239530       0.99013488 </v>
    <v>       0.11893713       0.36760470       0.00986512 </v>
    <v>       0.37039701       0.37776829       0.00930058 </v>
    <v>       0.62049699       0.37241953       0.00436552 </v>
    <v>       0.87013003       0.38431347       0.00808370 </v>
    <v>       0.13203553       0.61774686       0.99262575 </v>
    <v>       0.37936380       0.62931436       0.99566225 </v>
    <v>       0.63075267       0.62339095       0.99037223 </v>
    <v>       0.88149863       0.63417176       0.99002538 </v>
    <v>       0.11850137       0.86582824       0.00997462 </v>
    <v>       0.36924733       0.87660905       0.00962777 </v>
    <v>       0.62063620       0.87068564       0.00433775 </v>
    <v>       0.86796447       0.88225314       0.00737425 </v>
   </varray>
  </structure>
  <varray name="forces" >
   <v>       0.00749249      -0.01793962      -0.03332531 </v>
   <v>      -0.02237298       0.02510197      -0.02656484 </v>
   <v>       0.02237298      -0.02510197      -0.02656484 </v>
   <v>      -0.00749249       0.01793962      -0.03332531 </v>
   <v>       0.02782025      -0.01931653       0.00012196 </v>
   <v>      -0.01260794       0.00851687       0.01224054 </v>
   <v>       0.01260794      -0.00851687       0.01224054 </v>
   <v>      -0.02782025       0.01931653       0.00012196 </v>
   <v>       0.02237298      -0.02510197       0.02656484 </v>
   <v>      -0.00749249       0.01793962       0.03332531 </v>
   <v>       0.00749249      -0.01793962       0.03332531 </v>
   <v>      -0.02237298       0.02510197       0.02656484 </v>
   <v>       0.01260794      -0.00851687      -0.01224054 </v>
   <v>      -0.02782025       0.01931653      -0.00012196 </v>
   <v>       0.02782025      -0.01931653      -0.00012196 </v>
   <v>      -0.01260794       0.00851687      -0.01224054 </v>
   <v>       0.01675011      -0.03500690       0.03583865 </v>
   <v>      -0.02463941       0.03044549       0.03723960 </v>
   <v>       0.00523536      -0.01215681       0.02804557 </v>
   <v>      -0.00759941       0.01124009       0.03217020 </v>
   <v>       0.02463941      -0.03044549       0.03723960 </v>
   <v>      -0.01675011       0.03500690       0.03583865 </v>
   <v>       0.00759941      -0.01124009       0.03217020 </v>
   <v>      -0.00523536       0.01215681       0.02804557 </v>
   <v>       0.00523536      -0.01215681      -0.02804557 </v>
   <v>      -0.00759941       0.01124009      -0.03217020 </v>
   <v>       0.01675011      -0.03500690      -0.03583865 </v>
   <v>      -0.02463941       0.03044549      -0.03723960 </v>
   <v>       0.00759941      -0.01124009      -0.03217020 </v>
   <v>      -0.00523536       0.01215681      -0.02804557 </v>
   <v>       0.02463941      -0.03044549      -0.03723960 </v>
   <v>      -0.01675011       0.03500690      -0.03583865 </v>
   <v>       0.00177378       0.05127797       0.00625250 </v>
   <v>       0.00177378       0.05127797      -0.00625250 </v>
   <v>      -0.00177378      -0.05127797      -0.00625250 </v>
   <v>      -0.00764104       0.02072665      -0.00267308 </v>
   <v>      -0.00764104       0.02072665       0.00267308 </v>
   <v>       0.00764104      -0.02072665      -0.00267308 </v>
   <v>       0.03222368      -0.02864622       0.02935982 </v>
   <v>      -0.03222368       0.02864622      -0.02935982 </v>
   <v>      -0.00177378      -0.05127797       0.00625250 </v>
   <v>       0.03222368      -0.02864622      -0.02935982 </v>
   <v>       0.00764104      -0.02072665       0.00267308 </v>
   <v>      -0.03222368       0.02864622       0.02935982 </v>
   <v>      -0.03283208      -0.02970419       0.02112515 </v>
   <v>       0.03283208       0.02970419      -0.02112515 </v>
   <v>      -0.03283208      -0.02970419      -0.02112515 </v>
   <v>       0.03283208       0.02970419       0.02112515 </v>
   <v>      -0.01172880       0.00131324       0.01255989 </v>
   <v>       0.01172880      -0.00131324      -0.01255989 </v>
   <v>      -0.01172880       0.00131324      -0.01255989 </v>
   <v>       0.01172880      -0.00131324       0.01255989 </v>
   <v>      -0.01415912       0.01404593      -0.01350854 </v>
   <v>      -0.01415912       0.01404593       0.01350854 </v>
   <v>       0.01415912      -0.01404593       0.01350854 </v>
   <v>       0.01415912      -0.01404593      -0.01350854 </v>
   <v>      -0.01970634      -0.03236224       0.01361142 </v>
   <v>       0.01970634       0.03236224      -0.01361142 </v>
   <v>       0.01970634       0.03236224       0.01361142 </v>
   <v>      -0.01970634      -0.03236224      -0.01361142 </v>
   <v>       0.00376385       0.00179810       0.00875056 </v>
   <v>      -0.00376385      -0.00179810      -0.00875056 </v>
   <v>       0.00376385       0.00179810      -0.00875056 </v>
   <v>      -0.00376385      -0.00179810       0.00875056 </v>
   <v>       0.00674680      -0.01436355      -0.01173977 </v>
   <v>      -0.00674680       0.01436355      -0.01173977 </v>
   <v>      -0.02019066      -0.00506430      -0.02957783 </v>
   <v>       0.02019066       0.00506430      -0.02957783 </v>
   <v>      -0.00294610      -0.00337561      -0.01764823 </v>
   <v>       0.00294610       0.00337561      -0.01764823 </v>
   <v>       0.00986749      -0.00403439      -0.01625394 </v>
   <v>      -0.00986749       0.00403439      -0.01625394 </v>
   <v>      -0.02019066      -0.00506430       0.02957783 </v>
   <v>       0.02019066       0.00506430       0.02957783 </v>
   <v>       0.00674680      -0.01436355       0.01173977 </v>
   <v>      -0.00674680       0.01436355       0.01173977 </v>
   <v>       0.00986749      -0.00403439       0.01625394 </v>
   <v>      -0.00986749       0.00403439       0.01625394 </v>
   <v>      -0.00294610      -0.00337561       0.01764823 </v>
   <v>       0.00294610       0.00337561       0.01764823 </v>
   <v>      -0.01335221       0.01357192      -0.03202366 </v>
   <v>      -0.00347274      -0.03829315      -0.07517585 </v>
   <v>      -0.01418864      -0.00219178       0.00422499 </v>
   <v>       0.00683008      -0.01957637      -0.05943776 </v>
   <v>      -0.00683008       0.01957637      -0.05943776 </v>
   <v>       0.01418864       0.00219178       0.00422499 </v>
   <v>       0.00347274       0.03829315      -0.07517585 </v>
   <v>       0.01335221      -0.01357192      -0.03202366 </v>
   <v>      -0.01418864      -0.00219178      -0.00422499 </v>
   <v>       0.00683008      -0.01957637       0.05943776 </v>
   <v>      -0.01335221       0.01357192       0.03202366 </v>
   <v>      -0.00347274      -0.03829315       0.07517585 </v>
   <v>       0.00347274       0.03829315       0.07517585 </v>
   <v>       0.01335221      -0.01357192       0.03202366 </v>
   <v>      -0.00683008       0.01957637       0.05943776 </v>
   <v>       0.01418864       0.00219178      -0.00422499 </v>
   <v>      -0.01944411      -0.01282449      -0.00948434 </v>
   <v>       0.02489196       0.00586887      -0.01466674 </v>
   <v>       0.03706088       0.05579692       0.00613207 </v>
   <v>       0.01643488      -0.01076758      -0.00472627 </v>
   <v>      -0.00146479       0.00359989      -0.01629124 </v>
   <v>       0.05285944      -0.03267660      -0.01977483 </v>
   <v>      -0.01944411      -0.01282449       0.00948434 </v>
   <v>       0.02489196       0.00586887       0.01466674 </v>
   <v>       0.03706088       0.05579692      -0.00613207 </v>
   <v>       0.01643488      -0.01076758       0.00472627 </v>
   <v>      -0.00146479       0.00359989       0.01629124 </v>
   <v>       0.05285944      -0.03267660       0.01977483 </v>
   <v>      -0.05261071       0.04061263      -0.02586066 </v>
   <v>       0.01673437      -0.02479754      -0.00223629 </v>
   <v>       0.02469243      -0.00164028      -0.00488965 </v>
   <v>      -0.03108460      -0.01472757      -0.01586192 </v>
   <v>       0.03108460       0.01472757       0.01586192 </v>
   <v>      -0.02469243       0.00164028       0.00488965 </v>
   <v>      -0.01673437       0.02479754       0.00223629 </v>
   <v>       0.05261071      -0.04061263       0.02586066 </v>
   <v>       0.01655061       0.08867423      -0.04006327 </v>
   <v>      -0.03883244       0.01336017      -0.00104111 </v>
   <v>       0.02178260      -0.01712598      -0.00945780 </v>
   <v>      -0.05968292       0.00920769      -0.01436103 </v>
   <v>       0.05968292      -0.00920769       0.01436103 </v>
   <v>      -0.02178260       0.01712598       0.00945780 </v>
   <v>       0.03883244      -0.01336017       0.00104111 </v>
   <v>      -0.01655061      -0.08867423       0.04006327 </v>
   <v>      -0.05285944       0.03267660       0.01977483 </v>
   <v>       0.00146479      -0.00359989       0.01629124 </v>
   <v>      -0.01643488       0.01076758       0.00472627 </v>
   <v>      -0.03706088      -0.05579692      -0.00613207 </v>
   <v>      -0.02489196      -0.00586887       0.01466674 </v>
   <v>       0.01944411       0.01282449       0.00948434 </v>
   <v>      -0.05285944       0.03267660      -0.01977483 </v>
   <v>       0.00146479      -0.00359989      -0.01629124 </v>
   <v>      -0.01643488       0.01076758      -0.00472627 </v>
   <v>      -0.03706088      -0.05579692       0.00613207 </v>
   <v>      -0.02489196      -0.00586887      -0.01466674 </v>
   <v>       0.01944411       0.01282449      -0.00948434 </v>
   <v>       0.01655061       0.08867423       0.04006327 </v>
   <v>      -0.03883244       0.01336017       0.00104111 </v>
   <v>       0.02178260      -0.01712598       0.00945780 </v>
   <v>      -0.05968292       0.00920769       0.01436103 </v>
   <v>       0.05968292      -0.00920769      -0.01436103 </v>
   <v>      -0.02178260       0.01712598      -0.00945780 </v>
   <v>       0.03883244      -0.01336017      -0.00104111 </v>
   <v>      -0.01655061      -0.08867423      -0.04006327 </v>
   <v>      -0.05261071       0.04061263       0.02586066 </v>
   <v>       0.01673437      -0.02479754       0.00223629 </v>
   <v>       0.02469243      -0.00164028       0.00488965 </v>
   <v>      -0.03108460      -0.01472757       0.01586192 </v>
   <v>       0.03108460       0.01472757      -0.01586192 </v>
   <v>      -0.02469243       0.00164028      -0.00488965 </v>
   <v>      -0.01673437       0.02479754      -0.00223629 </v>
   <v>       0.05261071      -0.04061263      -0.02586066 </v>
  </varray>
  <varray name="stress" >
   <v>      -0.29819147       0.25846958       0.00000000 </v>
   <v>       0.25846936       1.72653765       0.00000000 </v>
   <v>       0.00000000       0.00000000       0.50648087 </v>
  </varray>
  <energy>
   <i name="e_fr_energy">  -1058.29146784 </i>
   <i name="e_wo_entrp">  -1058.29146784 </i>
   <i name="e_0_energy">     -0.00000000 </i>
  </energy>
  <time name="totalsc">  546.61  548.34</time>
 </calculation>
 <calculation>
  <scstep>
   <time name="dav">  142.58  142.59</time>
   <time name="total">  144.93  145.04</time>
   <energy>
    <i name="alphaZ">   5608.16449216 </i>
    <i name="ewald"> -62248.79822409 </i>
    <i name="hartreedc"> -17314.60456844 </i>
    <i name="XCdc">   3185.92260065 </i>
    <i name="pawpsdc"> 116107.66943612 </i>
    <i name="pawaedc">-115311.03830555 </i>
    <i name="eentropy">     -0.00000000 </i>
    <i name="bandstr">  -7135.79024544 </i>
    <i name="atom">  76050.17612637 </i>
    <i name="e_fr_energy">  -1058.29868822 </i>
    <i name="e_wo_entrp">  -1058.29868822 </i>
    <i name="e_0_energy">  -1058.29868822 </i>
   </energy>
  </scstep>
  <scstep>
   <time name="diag">   16.64   16.64</time>
   <time name="diis">   26.09   26.09</time>
   <time name="orth">    9.45    9.45</time>
   <time name="total">   54.57   54.58</time>
   <energy>
    <i name="e_fr_energy">  -1058.30361156 </i>
    <i name="e_wo_entrp">  -1058.30361156 </i>
    <i name="e_0_energy">  -1058.30361156 </i>
   </energy>
  </scstep>
  <scstep>
   <time name="diag">   16.63   16.63</time>
   <time name="diis">   27.14   27.14</time>
   <time name="orth">    9.44    9.43</time>
   <time name="total">   55.59   55.59</time>
   <energy>
    <i name="e_fr_energy">  -1058.30295904 </i>
    <i name="e_wo_entrp">  -1058.30295904 </i>
    <i name="e_0_energy">  -1058.30295904 </i>
   </energy>
  </scstep>
  <scstep>
   <time name="diag">   16.62   16.62</time>
   <time name="diis">   27.85   27.86</time>
   <time name="orth">    9.43    9.43</time>
   <time name="total">   56.30   56.34</time>
   <energy>
    <i name="e_fr_energy">  -1058.30233311 </i>
    <i name="e_wo_entrp">  -1058.30233311 </i>
    <i name="e_0_energy">  -1058.30233311 </i>
   </energy>
  </scstep>
  <scstep>
   <time name="diag">   16.62   16.62</time>
   <time name="diis">   24.41   24.41</time>
   <time name="orth">    9.44    9.44</time>
   <time name="total">   52.86   52.88</time>
   <energy>
    <i name="e_fr_energy">  -1058.30213053 </i>
    <i name="e_wo_entrp">  -1058.30213053 </i>
    <i name="e_0_energy">  -1058.30213053 </i>
   </energy>
  </scstep>
  <scstep>
   <time name="diag">   16.61   16.61</time>
   <time name="diis">   16.45   16.45</time>
   <time name="orth">    9.44    9.44</time>
   <time name="total">   44.89   44.99</time>
   <energy>
    <i name="e_fr_energy">  -1058.30213032 </i>
    <i name="e_wo_entrp">  -1058.30213032 </i>
    <i name="e_0_energy">  -1058.30213032 </i>
   </energy>
  </scstep>
  <scstep>
   <time name="diag">   16.60   16.60</time>
   <time name="diis">   16.23   16.23</time>
   <time name="orth">    9.44    9.44</time>
   <time name="total">   44.64   44.69</time>
   <energy>
    <i name="e_fr_energy">  -1058.30212947 </i>
    <i name="e_wo_entrp">  -1058.30212947 </i>
    <i name="e_0_energy">  -1058.30212947 </i>
   </energy>
  </scstep>
  <scstep>
   <time name="diag">   16.61   16.61</time>
   <time name="diis">   15.98   15.98</time>
   <time name="orth">    9.40    9.41</time>
   <time name="total">   42.57   42.58</time>
   <energy>
    <i name="alphaZ">   5608.16449216 </i>
    <i name="ewald"> -62248.79822409 </i>
    <i name="hartreedc"> -17325.87644022 </i>
    <i name="XCdc">   3186.67279392 </i>
    <i name="pawpsdc"> 115928.39152949 </i>
    <i name="pawaedc">-115131.66398618 </i>
    <i name="eentropy">     -0.00000000 </i>
    <i name="bandstr">  -7125.36841658 </i>
    <i name="atom">  76050.17612637 </i>
    <i name="e_fr_energy">  -1058.30212514 </i>
    <i name="e_wo_entrp">  -1058.30212514 </i>
    <i name="e_0_energy">  -1058.30212514 </i>
   </energy>
  </scstep>
  <structure>
   <crystal>
    <varray name="basis" >
     <v>      11.25028775       0.01210011       0.00000000 </v>
     <v>       0.01222736      11.32840392       0.00000000 </v>
     <v>       0.00000000       0.00000000      15.75694742 </v>
    </varray>
    <i name="volume">   2008.18601313 </i>
    <varray name="rec_basis" >
     <v>       0.08888672      -0.00009594       0.00000000 </v>
     <v>      -0.00009494       0.08827379       0.00000000 </v>
     <v>       0.00000000       0.00000000       0.06346407 </v>
    </varray>
   </crystal>
   <varray name="positions" >
    <v>       0.99362234       0.24683267       0.11695004 </v>
    <v>       0.00811234       0.25291044       0.61769657 </v>
    <v>       0.99188766       0.74708956       0.11769657 </v>
    <v>       0.00637766       0.75316733       0.61695004 </v>
    <v>       0.50418595       0.24957574       0.12067985 </v>
    <v>       0.49434190       0.24961957       0.62176106 </v>
    <v>       0.50565810       0.75038043       0.12176106 </v>
    <v>       0.49581405       0.75042426       0.62067985 </v>
    <v>       0.99188766       0.24708956       0.38230343 </v>
    <v>       0.00637766       0.25316733       0.88304996 </v>
    <v>       0.99362234       0.74683267       0.38304996 </v>
    <v>       0.00811234       0.75291044       0.88230343 </v>
    <v>       0.50565810       0.25038043       0.37823894 </v>
    <v>       0.49581405       0.25042426       0.87932015 </v>
    <v>       0.50418595       0.74957574       0.37932015 </v>
    <v>       0.49434190       0.74961957       0.87823894 </v>
    <v>       0.24627190       0.00585494       0.11345923 </v>
    <v>       0.24857878       0.99415810       0.62099465 </v>
    <v>       0.24713376       0.50061833       0.11458669 </v>
    <v>       0.24888434       0.49936591       0.62234679 </v>
    <v>       0.75142122       0.00584190       0.12099465 </v>
    <v>       0.75372810       0.99414506       0.61345923 </v>
    <v>       0.75111566       0.50063409       0.12234679 </v>
    <v>       0.75286624       0.49938167       0.61458669 </v>
    <v>       0.24713376       0.00061833       0.38541331 </v>
    <v>       0.24888434       0.99936591       0.87765321 </v>
    <v>       0.24627190       0.50585494       0.38654077 </v>
    <v>       0.24857878       0.49415810       0.87900535 </v>
    <v>       0.75111566       0.00063409       0.37765321 </v>
    <v>       0.75286624       0.99938167       0.88541331 </v>
    <v>       0.75142122       0.50584190       0.37900535 </v>
    <v>       0.75372810       0.49414506       0.88654077 </v>
    <v>       0.00100822       0.99780647       0.49947514 </v>
    <v>       0.00100822       0.49780647       0.00052486 </v>
    <v>       0.99899178       0.50219353       0.50052486 </v>
    <v>       0.49943354       0.99690874       0.49970182 </v>
    <v>       0.49943354       0.49690874       0.00029818 </v>
    <v>       0.50056646       0.00309126       0.99970182 </v>
    <v>       0.75202270       0.24224104       0.24841760 </v>
    <v>       0.24797730       0.25775896       0.75158240 </v>
    <v>       0.99899178       0.00219353       0.99947514 </v>
    <v>       0.75202270       0.74224104       0.25158240 </v>
    <v>       0.50056646       0.50309126       0.50029818 </v>
    <v>       0.24797730       0.75775896       0.74841760 </v>
    <v>       0.25050034       0.74916691       0.00154512 </v>
    <v>       0.74949966       0.75083309       0.99845488 </v>
    <v>       0.25050034       0.24916691       0.49845488 </v>
    <v>       0.74949966       0.25083309       0.50154512 </v>
    <v>       0.24987397       0.24819763       0.00094549 </v>
    <v>       0.75012603       0.25180237       0.99905451 </v>
    <v>       0.24987397       0.74819763       0.49905451 </v>
    <v>       0.75012603       0.75180237       0.50094549 </v>
    <v>       0.01170912       0.01335937       0.74969642 </v>
    <v>       0.01170912       0.51335937       0.75030358 </v>
    <v>       0.98829088       0.48664063       0.25030358 </v>
    <v>       0.98829088       0.98664063       0.24969642 </v>
    <v>       0.25489479       0.29088578       0.25174930 </v>
    <v>       0.74510521       0.20911422       0.74825070 </v>
    <v>       0.74510521       0.70911422       0.75174930 </v>
    <v>       0.25489479       0.79088578       0.24825070 </v>
    <v>       0.47679576       0.50826441       0.75034315 </v>
    <v>       0.52320424       0.99173559       0.24965685 </v>
    <v>       0.47679576       0.00826441       0.74965685 </v>
    <v>       0.52320424       0.49173559       0.25034315 </v>
    <v>       0.00152030       0.01759239       0.12577285 </v>
    <v>       0.99847970       0.98240761       0.62577285 </v>
    <v>       0.00515953       0.51899576       0.12653628 </v>
    <v>       0.99484047       0.48100424       0.62653628 </v>
    <v>       0.49696814       0.01520477       0.12680545 </v>
    <v>       0.50303186       0.98479523       0.62680545 </v>
    <v>       0.49763486       0.51581300       0.12696636 </v>
    <v>       0.50236514       0.48418700       0.62696636 </v>
    <v>       0.00515953       0.01899576       0.37346372 </v>
    <v>       0.99484047       0.98100424       0.87346372 </v>
    <v>       0.00152030       0.51759239       0.37422715 </v>
    <v>       0.99847970       0.48240761       0.87422715 </v>
    <v>       0.49763486       0.01581300       0.37303364 </v>
    <v>       0.50236514       0.98418700       0.87303364 </v>
    <v>       0.49696814       0.51520477       0.37319455 </v>
    <v>       0.50303186       0.48479523       0.87319455 </v>
    <v>       0.24304816       0.22360781       0.36266510 </v>
    <v>       0.24860713       0.25924569       0.87539966 </v>
    <v>       0.23812613       0.72134797       0.35636360 </v>
    <v>       0.24843222       0.76147762       0.87802068 </v>
    <v>       0.75156778       0.23852238       0.37802068 </v>
    <v>       0.76187387       0.27865203       0.85636360 </v>
    <v>       0.75139287       0.74075431       0.37539966 </v>
    <v>       0.75695184       0.77639219       0.86266510 </v>
    <v>       0.23812613       0.22134797       0.14363640 </v>
    <v>       0.24843222       0.26147762       0.62197932 </v>
    <v>       0.24304816       0.72360781       0.13733490 </v>
    <v>       0.24860713       0.75924569       0.62460034 </v>
    <v>       0.75139287       0.24075431       0.12460034 </v>
    <v>       0.75695184       0.27639219       0.63733490 </v>
    <v>       0.75156778       0.73852238       0.12197932 </v>
    <v>       0.76187387       0.77865203       0.64363640 </v>
    <v>       0.60486870       0.14782621       0.25016835 </v>
    <v>       0.85794223       0.10362730       0.25085961 </v>
    <v>       0.15509586       0.42594206       0.25151027 </v>
    <v>       0.40624049       0.35983257       0.24962895 </v>
    <v>       0.65969339       0.39400879       0.25189151 </v>
    <v>       0.90419274       0.34237507       0.25009850 </v>
    <v>       0.60486870       0.64782621       0.24983165 </v>
    <v>       0.85794223       0.60362730       0.24914039 </v>
    <v>       0.15509586       0.92594206       0.24848973 </v>
    <v>       0.40624049       0.85983257       0.25037105 </v>
    <v>       0.65969339       0.89400879       0.24810849 </v>
    <v>       0.90419274       0.84237507       0.24990150 </v>
    <v>       0.13180978       0.11792015       0.50729506 </v>
    <v>       0.37943566       0.12920861       0.50433090 </v>
    <v>       0.63085855       0.12338386       0.50961279 </v>
    <v>       0.88136541       0.13410913       0.50992605 </v>
    <v>       0.11863459       0.36589087       0.49007395 </v>
    <v>       0.36914145       0.37661614       0.49038721 </v>
    <v>       0.62056434       0.37079139       0.49566910 </v>
    <v>       0.86819022       0.38207985       0.49270494 </v>
    <v>       0.12994056       0.61606435       0.50796101 </v>
    <v>       0.37933645       0.62763757       0.50436233 </v>
    <v>       0.62969645       0.62215863       0.50927162 </v>
    <v>       0.88080693       0.63243479       0.50982114 </v>
    <v>       0.11919307       0.86756521       0.49017886 </v>
    <v>       0.37030355       0.87784137       0.49072838 </v>
    <v>       0.62066355       0.87236243       0.49563767 </v>
    <v>       0.87005944       0.88393565       0.49203899 </v>
    <v>       0.09580726       0.15762493       0.74990150 </v>
    <v>       0.34030661       0.10599121       0.74810849 </v>
    <v>       0.59375951       0.14016743       0.75037105 </v>
    <v>       0.84490414       0.07405794       0.74848973 </v>
    <v>       0.14205777       0.39637270       0.74914039 </v>
    <v>       0.39513130       0.35217379       0.74983165 </v>
    <v>       0.09580726       0.65762493       0.75009850 </v>
    <v>       0.34030661       0.60599121       0.75189151 </v>
    <v>       0.59375951       0.64016743       0.74962895 </v>
    <v>       0.84490414       0.57405794       0.75151027 </v>
    <v>       0.14205777       0.89637270       0.75085961 </v>
    <v>       0.39513130       0.85217379       0.75016835 </v>
    <v>       0.12994056       0.11606435       0.99203899 </v>
    <v>       0.37933645       0.12763757       0.99563767 </v>
    <v>       0.62969645       0.12215863       0.99072838 </v>
    <v>       0.88080693       0.13243479       0.99017886 </v>
    <v>       0.11919307       0.36756521       0.00982114 </v>
    <v>       0.37030355       0.37784137       0.00927162 </v>
    <v>       0.62066355       0.37236243       0.00436233 </v>
    <v>       0.87005944       0.38393565       0.00796101 </v>
    <v>       0.13180978       0.61792015       0.99270494 </v>
    <v>       0.37943566       0.62920861       0.99566910 </v>
    <v>       0.63085855       0.62338386       0.99038721 </v>
    <v>       0.88136541       0.63410913       0.99007395 </v>
    <v>       0.11863459       0.86589087       0.00992605 </v>
    <v>       0.36914145       0.87661614       0.00961279 </v>
    <v>       0.62056434       0.87079139       0.00433090 </v>
    <v>       0.86819022       0.88207985       0.00729506 </v>
   </varray>
  </structure>
  <varray name="forces" >
   <v>       0.00539562      -0.01809583      -0.04281260 </v>
   <v>      -0.01213828       0.02377837      -0.00788676 </v>
   <v>       0.01213828      -0.02377837      -0.00788676 </v>
   <v>      -0.00539562       0.01809583      -0.04281260 </v>
   <v>       0.03181220      -0.01615343      -0.00763184 </v>
   <v>      -0.01716044       0.00966624       0.01397947 </v>
   <v>       0.01716044      -0.00966624       0.01397947 </v>
   <v>      -0.03181220       0.01615343      -0.00763184 </v>
   <v>       0.01213828      -0.02377837       0.00788676 </v>
   <v>      -0.00539562       0.01809583       0.04281260 </v>
   <v>       0.00539562      -0.01809583       0.04281260 </v>
   <v>      -0.01213828       0.02377837       0.00788676 </v>
   <v>       0.01716044      -0.00966624      -0.01397947 </v>
   <v>      -0.03181220       0.01615343       0.00763184 </v>
   <v>       0.03181220      -0.01615343       0.00763184 </v>
   <v>      -0.01716044       0.00966624      -0.01397947 </v>
   <v>       0.02663343      -0.00995485       0.01655008 </v>
   <v>      -0.01069858       0.01508570       0.03081922 </v>
   <v>       0.01536241      -0.02917123       0.01981198 </v>
   <v>      -0.00003866       0.02230876       0.01876057 </v>
   <v>       0.01069858      -0.01508570       0.03081922 </v>
   <v>      -0.02663343       0.00995485       0.01655008 </v>
   <v>       0.00003866      -0.02230876       0.01876057 </v>
   <v>      -0.01536241       0.02917123       0.01981198 </v>
   <v>       0.01536241      -0.02917123      -0.01981198 </v>
   <v>      -0.00003866       0.02230876      -0.01876057 </v>
   <v>       0.02663343      -0.00995485      -0.01655008 </v>
   <v>      -0.01069858       0.01508570      -0.03081922 </v>
   <v>       0.00003866      -0.02230876      -0.01876057 </v>
   <v>      -0.01536241       0.02917123      -0.01981198 </v>
   <v>       0.01069858      -0.01508570      -0.03081922 </v>
   <v>      -0.02663343       0.00995485      -0.01655008 </v>
   <v>      -0.03245302      -0.05279607      -0.00271777 </v>
   <v>      -0.03245302      -0.05279607       0.00271777 </v>
   <v>       0.03245302       0.05279607       0.00271777 </v>
   <v>       0.01499562      -0.03604334      -0.00540058 </v>
   <v>       0.01499562      -0.03604334       0.00540058 </v>
   <v>      -0.01499562       0.03604334      -0.00540058 </v>
   <v>      -0.00593955       0.00052994      -0.00373849 </v>
   <v>       0.00593955      -0.00052994       0.00373849 </v>
   <v>       0.03245302       0.05279607      -0.00271777 </v>
   <v>      -0.00593955       0.00052994       0.00373849 </v>
   <v>      -0.01499562       0.03604334       0.00540058 </v>
   <v>       0.00593955      -0.00052994      -0.00373849 </v>
   <v>       0.03279060       0.00195250      -0.01201524 </v>
   <v>      -0.03279060      -0.00195250       0.01201524 </v>
   <v>       0.03279060       0.00195250       0.01201524 </v>
   <v>      -0.03279060      -0.00195250      -0.01201524 </v>
   <v>       0.00354772      -0.00143191      -0.00869760 </v>
   <v>      -0.00354772       0.00143191       0.00869760 </v>
   <v>       0.00354772      -0.00143191       0.00869760 </v>
   <v>      -0.00354772       0.00143191      -0.00869760 </v>
   <v>      -0.00835094       0.02762727      -0.00432034 </v>
   <v>      -0.00835094       0.02762727       0.00432034 </v>
   <v>       0.00835094      -0.02762727       0.00432034 </v>
   <v>       0.00835094      -0.02762727      -0.00432034 </v>
   <v>       0.00375113       0.00514705      -0.03304167 </v>
   <v>      -0.00375113      -0.00514705       0.03304167 </v>
   <v>      -0.00375113      -0.00514705      -0.03304167 </v>
   <v>       0.00375113       0.00514705       0.03304167 </v>
   <v>      -0.00452907       0.00741190       0.00556785 </v>
   <v>       0.00452907      -0.00741190      -0.00556785 </v>
   <v>      -0.00452907       0.00741190      -0.00556785 </v>
   <v>       0.00452907      -0.00741190       0.00556785 </v>
   <v>       0.00203780      -0.02550311      -0.01865976 </v>
   <v>      -0.00203780       0.02550311      -0.01865976 </v>
   <v>      -0.01869033      -0.00225727      -0.02135084 </v>
   <v>       0.01869033       0.00225727      -0.02135084 </v>
   <v>      -0.00422804      -0.00947726      -0.00925003 </v>
   <v>       0.00422804       0.00947726      -0.00925003 </v>
   <v>       0.00674084      -0.00009875      -0.00858492 </v>
   <v>      -0.00674084       0.00009875      -0.00858492 </v>
   <v>      -0.01869033      -0.00225727       0.02135084 </v>
   <v>       0.01869033       0.00225727       0.02135084 </v>
   <v>       0.00203780      -0.02550311       0.01865976 </v>
   <v>      -0.00203780       0.02550311       0.01865976 </v>
   <v>       0.00674084      -0.00009875       0.00858492 </v>
   <v>      -0.00674084       0.00009875       0.00858492 </v>
   <v>      -0.00422804      -0.00947726       0.00925003 </v>
   <v>       0.00422804       0.00947726       0.00925003 </v>
   <v>      -0.01991918      -0.00168808       0.00403070 </v>
   <v>      -0.00270322      -0.02658102      -0.03526039 </v>
   <v>      -0.01202968      -0.00099981      -0.02663036 </v>
   <v>      -0.00616202      -0.02553174       0.01914970 </v>
   <v>       0.00616202       0.02553174       0.01914970 </v>
   <v>       0.01202968       0.00099981      -0.02663036 </v>
   <v>       0.00270322       0.02658102      -0.03526039 </v>
   <v>       0.01991918       0.00168808       0.00403070 </v>
   <v>      -0.01202968      -0.00099981       0.02663036 </v>
   <v>      -0.00616202      -0.02553174      -0.01914970 </v>
   <v>      -0.01991918      -0.00168808      -0.00403070 </v>
[...]
       <r>   -16.9128     0.0000    32.0000 </r>
       <r>   -16.7600     0.0000    32.0000 </r>
       <r>   -16.6072     0.0000    32.0000 </r>
       <r>   -16.4544     0.0000    32.0000 </r>
       <r>   -16.3016     0.0000    32.0000 </r>
       <r>   -16.1488     0.0000    32.0000 </r>
       <r>   -15.9960     0.0000    32.0000 </r>
       <r>   -15.8432     0.0000    32.0000 </r>
       <r>   -15.6904     0.0000    32.0000 </r>
       <r>   -15.5376     0.0000    32.0000 </r>
       <r>   -15.3848     0.0000    32.0000 </r>
       <r>   -15.2320     0.0386    32.0059 </r>
       <r>   -15.0792    13.5009    34.0689 </r>
       <r>   -14.9264    40.8492    40.3107 </r>
       <r>   -14.7736    41.9293    46.7175 </r>
       <r>   -14.6208    37.5643    52.4574 </r>
       <r>   -14.4680    33.6116    57.5933 </r>
       <r>   -14.3152    44.2838    64.3599 </r>
       <r>   -14.1624    77.3317    76.1763 </r>
       <r>   -14.0096    98.8612    91.2824 </r>
       <r>   -13.8568    88.8533   104.8593 </r>
       <r>   -13.7040    67.6786   115.2007 </r>
       <r>   -13.5512    31.3866   119.9966 </r>
       <r>   -13.3984     0.0220   120.0000 </r>
       <r>   -13.2456     0.0000   120.0000 </r>
       <r>   -13.0928     0.0000   120.0000 </r>
       <r>   -12.9400     0.0000   120.0000 </r>
       <r>   -12.7872     0.0128   120.0019 </r>
       <r>   -12.6343    20.1375   123.0790 </r>
       <r>   -12.4815   114.2538   140.5371 </r>
       <r>   -12.3287   154.0826   164.0812 </r>
       <r>   -12.1759   122.8878   182.8586 </r>
       <r>   -12.0231   120.2590   201.2343 </r>
       <r>   -11.8703    73.9947   212.5408 </r>
       <r>   -11.7175    22.6292   215.9986 </r>
       <r>   -11.5647     0.0093   216.0000 </r>
       <r>   -11.4119     0.0000   216.0000 </r>
       <r>   -11.2591     0.0000   216.0000 </r>
       <r>   -11.1063     0.0000   216.0000 </r>
       <r>   -10.9535     0.0000   216.0000 </r>
       <r>   -10.8007     0.0000   216.0000 </r>
       <r>   -10.6479     0.0000   216.0000 </r>
       <r>   -10.4951     0.0000   216.0000 </r>
       <r>   -10.3423     0.0000   216.0000 </r>
       <r>   -10.1895     0.0000   216.0000 </r>
       <r>   -10.0367     0.0000   216.0000 </r>
       <r>    -9.8839     0.0000   216.0000 </r>
       <r>    -9.7311     0.0000   216.0000 </r>
       <r>    -9.5783     0.0000   216.0000 </r>
       <r>    -9.4255     0.0000   216.0000 </r>
       <r>    -9.2727     0.0000   216.0000 </r>
       <r>    -9.1199     0.0000   216.0000 </r>
       <r>    -8.9671     0.0000   216.0000 </r>
       <r>    -8.8143     0.0000   216.0000 </r>
       <r>    -8.6615     0.0000   216.0000 </r>
       <r>    -8.5087     0.0000   216.0000 </r>
       <r>    -8.3559     0.0000   216.0000 </r>
       <r>    -8.2031     0.0000   216.0000 </r>
       <r>    -8.0503     0.0000   216.0000 </r>
       <r>    -7.8975     0.0000   216.0000 </r>
       <r>    -7.7447     0.0000   216.0000 </r>
       <r>    -7.5919     0.0000   216.0000 </r>
       <r>    -7.4391     0.0000   216.0000 </r>
       <r>    -7.2863     0.0000   216.0000 </r>
       <r>    -7.1335     0.0000   216.0000 </r>
       <r>    -6.9807     0.0000   216.0000 </r>
       <r>    -6.8279     0.0000   216.0000 </r>
       <r>    -6.6751     0.0000   216.0000 </r>
       <r>    -6.5223     0.0000   216.0000 </r>
       <r>    -6.3695     0.0000   216.0000 </r>
       <r>    -6.2167     0.0000   216.0000 </r>
       <r>    -6.0639     0.0000   216.0000 </r>
       <r>    -5.9111     0.0000   216.0000 </r>
       <r>    -5.7583     0.0000   216.0000 </r>
       <r>    -5.6055     0.0000   216.0000 </r>
       <r>    -5.4527     0.0000   216.0000 </r>
       <r>    -5.2999     0.0000   216.0000 </r>
       <r>    -5.1471     0.0000   216.0000 </r>
       <r>    -4.9943     0.0000   216.0000 </r>
       <r>    -4.8415     0.0000   216.0000 </r>
       <r>    -4.6887     0.0000   216.0000 </r>
       <r>    -4.5359     0.0000   216.0000 </r>
       <r>    -4.3831     0.0000   216.0000 </r>
       <r>    -4.2303     0.0000   216.0000 </r>
       <r>    -4.0775     0.0000   216.0000 </r>
       <r>    -3.9247     0.0000   216.0000 </r>
       <r>    -3.7719     0.0000   216.0000 </r>
       <r>    -3.6191     0.0000   216.0000 </r>
       <r>    -3.4663     0.0000   216.0000 </r>
       <r>    -3.3135     0.0000   216.0000 </r>
       <r>    -3.1607     0.0000   216.0000 </r>
       <r>    -3.0079     0.0000   216.0000 </r>
       <r>    -2.8551     0.0000   216.0000 </r>
       <r>    -2.7023     0.0000   216.0000 </r>
       <r>    -2.5495     0.0012   216.0002 </r>
       <r>    -2.3967     6.5970   217.0082 </r>
       <r>    -2.2439    15.2817   219.3433 </r>
       <r>    -2.0911    19.7069   222.3545 </r>
       <r>    -1.9383    27.2935   226.5250 </r>
       <r>    -1.7855    37.3177   232.2272 </r>
       <r>    -1.6327    29.5901   236.7486 </r>
       <r>    -1.4798    41.7899   243.1342 </r>
       <r>    -1.3270    53.9567   251.3788 </r>
       <r>    -1.1742    62.2267   260.8871 </r>
       <r>    -1.0214    76.7025   272.6074 </r>
       <r>    -0.8686    86.7628   285.8649 </r>
       <r>    -0.7158    82.2419   298.4316 </r>
       <r>    -0.5630    99.7990   313.6810 </r>
       <r>    -0.4102    85.1140   326.6865 </r>
       <r>    -0.2574    67.7679   337.0415 </r>
       <r>    -0.1046    58.1348   345.9246 </r>
       <r>     0.0482    47.6031   353.1984 </r>
       <r>     0.2010    67.3935   363.4962 </r>
       <r>     0.3538    56.2391   372.0897 </r>
       <r>     0.5066    51.3387   379.9343 </r>
       <r>     0.6594    60.9989   389.2550 </r>
       <r>     0.8122    50.2550   396.9340 </r>
       <r>     0.9650    59.8529   406.0796 </r>
       <r>     1.1178    58.0293   414.9466 </r>
       <r>     1.2706    83.1667   427.6546 </r>
       <r>     1.4234    79.2471   439.7637 </r>
       <r>     1.5762    77.1581   451.5535 </r>
       <r>     1.7290    79.6092   463.7179 </r>
       <r>     1.8818    41.2717   470.0243 </r>
       <r>     2.0346    33.0738   475.0780 </r>
       <r>     2.1874    27.8301   479.3305 </r>
       <r>     2.3402     4.3815   480.0000 </r>
       <r>     2.4930     0.0000   480.0000 </r>
       <r>     2.6458     0.0000   480.0000 </r>
       <r>     2.7986     0.0000   480.0000 </r>
       <r>     2.9514     0.0000   480.0000 </r>
       <r>     3.1042     0.0000   480.0000 </r>
       <r>     3.2570     0.0000   480.0000 </r>
       <r>     3.4098     0.0000   480.0000 </r>
       <r>     3.5626     0.0000   480.0000 </r>
       <r>     3.7154     0.0000   480.0000 </r>
       <r>     3.8682     0.0000   480.0000 </r>
       <r>     4.0210     0.0000   480.0000 </r>
       <r>     4.1738     0.0000   480.0000 </r>
       <r>     4.3266     0.0084   480.0013 </r>
       <r>     4.4794    15.7395   482.4063 </r>
       <r>     4.6322    68.2869   492.8406 </r>
       <r>     4.7850    53.2455   500.9766 </r>
       <r>     4.9378    49.9169   508.6040 </r>
       <r>     5.0906    76.6945   520.3230 </r>
       <r>     5.2434    93.9344   534.6763 </r>
       <r>     5.3962    52.6603   542.7229 </r>
       <r>     5.5490    70.6317   553.5155 </r>
       <r>     5.7018    59.6668   562.6327 </r>
       <r>     5.8546    81.5518   575.0939 </r>
       <r>     6.0074    92.9653   589.2991 </r>
       <r>     6.1602    72.2924   600.3455 </r>
       <r>     6.3130    44.5092   607.1466 </r>
       <r>     6.4658     7.0310   608.2209 </r>
       <r>     6.6186    15.0165   610.5155 </r>
       <r>     6.7714    17.9749   613.2621 </r>
       <r>     6.9242    17.7574   615.9754 </r>
       <r>     7.0770     3.6478   616.5328 </r>
       <r>     7.2298    18.3500   619.3367 </r>
       <r>     7.3826    10.4071   620.9269 </r>
       <r>     7.5354    12.9914   622.9120 </r>
       <r>     7.6882    23.1677   626.4521 </r>
       <r>     7.8410    24.9361   630.2624 </r>
       <r>     7.9938    24.1495   633.9524 </r>
       <r>     8.1466    25.6115   637.8659 </r>
       <r>     8.2994    24.0863   641.5463 </r>
       <r>     8.4522    24.1929   645.2430 </r>
       <r>     8.6050    27.0016   649.3689 </r>
       <r>     8.7578    11.3700   651.1063 </r>
       <r>     8.9106    31.5994   655.9347 </r>
       <r>     9.0634    39.4959   661.9697 </r>
       <r>     9.2162    35.6708   667.4203 </r>
       <r>     9.3690    38.3642   673.2824 </r>
       <r>     9.5218    48.6076   680.7097 </r>
       <r>     9.6747    52.8969   688.7924 </r>
       <r>     9.8275    46.3167   695.8697 </r>
       <r>     9.9803    60.4002   705.0989 </r>
       <r>    10.1331    63.1848   714.7536 </r>
       <r>    10.2859    56.6926   723.4163 </r>
       <r>    10.4387    53.2292   731.5498 </r>
       <r>    10.5915    50.0894   739.2035 </r>
       <r>    10.7443    57.3582   747.9680 </r>
       <r>    10.8971    46.3610   755.0520 </r>
       <r>    11.0499    58.9798   764.0642 </r>
       <r>    11.2027    25.7429   767.9977 </r>
       <r>    11.3555     0.0150   768.0000 </r>
       <r>    11.5083     0.0000   768.0000 </r>
       <r>    11.6611     0.0000   768.0000 </r>
       <r>    11.8139     0.0000   768.0000 </r>
       <r>    11.9667     0.0000   768.0000 </r>
       <r>    12.1195     0.0000   768.0000 </r>
       <r>    12.2723     0.0000   768.0000 </r>
       <r>    12.4251     0.0000   768.0000 </r>
       <r>    12.5779     0.0000   768.0000 </r>
       <r>    12.7307     0.0000   768.0000 </r>
       <r>    12.8835     0.0000   768.0000 </r>
       <r>    13.0363     0.0000   768.0000 </r>
       <r>    13.1891     0.0000   768.0000 </r>
      </set>
     </set>
    </array>
   </total>
  </dos>
 </calculation>
 <structure name="finalpos" >
  <crystal>
   <varray name="basis" >
    <v>      11.23772521       0.01802691       0.00000000 </v>
    <v>       0.01819670      11.32394393       0.00000000 </v>
    <v>       0.00000000       0.00000000      15.78205311 </v>
   </varray>
   <i name="volume">   2008.34583335 </i>
   <varray name="rec_basis" >
    <v>       0.08898621      -0.00014299       0.00000000 </v>
    <v>      -0.00014166       0.08830868       0.00000000 </v>
    <v>       0.00000000       0.00000000       0.06336311 </v>
   </varray>
  </crystal>
  <varray name="positions" >
   <v>       0.99554623       0.24561985       0.11599972 </v>
   <v>       0.00613703       0.25406383       0.61659016 </v>
   <v>       0.99386297       0.74593617       0.11659016 </v>
   <v>       0.00445377       0.75438015       0.61599972 </v>
   <v>       0.50650362       0.24874086       0.12064936 </v>
   <v>       0.49274996       0.25007424       0.62202087 </v>
   <v>       0.50725004       0.74992576       0.12202087 </v>
   <v>       0.49349638       0.75125914       0.62064936 </v>
   <v>       0.99386297       0.24593617       0.38340984 </v>
   <v>       0.00445377       0.25438015       0.88400028 </v>
   <v>       0.99554623       0.74561985       0.38400028 </v>
   <v>       0.00613703       0.75406383       0.88340984 </v>
   <v>       0.50725004       0.24992576       0.37797913 </v>
   <v>       0.49349638       0.25125914       0.87935064 </v>
   <v>       0.50650362       0.74874086       0.37935064 </v>
   <v>       0.49274996       0.75007424       0.87797913 </v>
   <v>       0.24747695       0.00693572       0.11315035 </v>
   <v>       0.24676328       0.99595421       0.62097068 </v>
   <v>       0.24833698       0.50152066       0.11397616 </v>
   <v>       0.24690030       0.50037162       0.62234631 </v>
   <v>       0.75323672       0.00404579       0.12097068 </v>
   <v>       0.75252305       0.99306428       0.61315035 </v>
   <v>       0.75309970       0.49962838       0.12234631 </v>
   <v>       0.75166302       0.49847934       0.61397616 </v>
   <v>       0.24833698       0.00152066       0.38602384 </v>
   <v>       0.24690030       0.00037162       0.87765369 </v>
   <v>       0.24747695       0.50693572       0.38684965 </v>
   <v>       0.24676328       0.49595421       0.87902932 </v>
   <v>       0.75309970      -0.00037162       0.37765369 </v>
   <v>       0.75166302       0.99847934       0.88602384 </v>
   <v>       0.75323672       0.50404579       0.37902932 </v>
   <v>       0.75252305       0.49306428       0.88684965 </v>
   <v>       0.00069193       0.99766564       0.49945590 </v>
   <v>       0.00069193       0.49766564       0.00054410 </v>
   <v>       0.99930807       0.50233436       0.50054410 </v>
   <v>       0.49975512       0.99686374       0.49975477 </v>
   <v>       0.49975512       0.49686374       0.00024523 </v>
   <v>       0.50024488       0.00313626       0.99975477 </v>
   <v>       0.75433338       0.24092276       0.24855562 </v>
   <v>       0.24566662       0.25907724       0.75144438 </v>
   <v>       0.99930807       0.00233436       0.99945590 </v>
   <v>       0.75433338       0.74092276       0.25144438 </v>
   <v>       0.50024488       0.50313626       0.50024523 </v>
   <v>       0.24566662       0.75907724       0.74855562 </v>
   <v>       0.25049807       0.74969431       0.00153658 </v>
   <v>       0.74950193       0.75030569       0.99846342 </v>
   <v>       0.25049807       0.24969431       0.49846342 </v>
   <v>       0.74950193       0.25030569       0.50153658 </v>
   <v>       0.24974766       0.24912877       0.00047144 </v>
   <v>       0.75025234       0.25087123       0.99952856 </v>
   <v>       0.24974766       0.74912877       0.49952856 </v>
   <v>       0.75025234       0.75087123       0.50047144 </v>
   <v>       0.00959318       0.01528912       0.74962528 </v>
   <v>       0.00959318       0.51528912       0.75037472 </v>
   <v>       0.99040682       0.48471088       0.25037472 </v>
   <v>       0.99040682       0.98471088       0.24962528 </v>
   <v>       0.25563395       0.29265987       0.25165901 </v>
   <v>       0.74436605       0.20734013       0.74834099 </v>
   <v>       0.74436605       0.70734013       0.75165901 </v>
   <v>       0.25563395       0.79265987       0.24834099 </v>
   <v>       0.47510946       0.50969381       0.75018871 </v>
   <v>       0.52489054       0.99030619       0.24981129 </v>
   <v>       0.47510946       0.00969381       0.74981129 </v>
   <v>       0.52489054       0.49030619       0.25018871 </v>
   <v>       0.00081987       0.01416677       0.12544520 </v>
   <v>       0.99918013       0.98583323       0.62544520 </v>
   <v>       0.00342299       0.51616622       0.12632011 </v>
   <v>       0.99657701       0.48383378       0.62632011 </v>
   <v>       0.49671904       0.01402692       0.12712372 </v>
   <v>       0.50328096       0.98597308       0.62712372 </v>
   <v>       0.49797572       0.51492278       0.12686478 </v>
   <v>       0.50202428       0.48507722       0.62686478 </v>
   <v>       0.00342299       0.01616622       0.37367989 </v>
   <v>       0.99657701       0.98383378       0.87367989 </v>
   <v>       0.00081987       0.51416677       0.37455480 </v>
   <v>       0.99918013       0.48583323       0.87455480 </v>
   <v>       0.49797572       0.01492278       0.37313522 </v>
   <v>       0.50202428       0.98507722       0.87313522 </v>
   <v>       0.49671904       0.51402692       0.37287628 </v>
   <v>       0.50328096       0.48597308       0.87287628 </v>
   <v>       0.24147071       0.22538751       0.36240912 </v>
   <v>       0.24770735       0.25805635       0.87501925 </v>
   <v>       0.23597724       0.72293387       0.35579408 </v>
   <v>       0.24730979       0.76028946       0.87797733 </v>
   <v>       0.75269021       0.23971054       0.37797733 </v>
   <v>       0.76402276       0.27706613       0.85579408 </v>
   <v>       0.75229265       0.74194365       0.37501925 </v>
   <v>       0.75852929       0.77461249       0.86240912 </v>
   <v>       0.23597724       0.22293387       0.14420592 </v>
   <v>       0.24730979       0.26028946       0.62202267 </v>
   <v>       0.24147071       0.72538751       0.13759088 </v>
   <v>       0.24770735       0.75805635       0.62498075 </v>
   <v>       0.75229265       0.24194365       0.12498075 </v>
   <v>       0.75852929       0.27461249       0.63759088 </v>
   <v>       0.75269021       0.73971054       0.12202267 </v>
   <v>       0.76402276       0.77706613       0.64420592 </v>
   <v>       0.60722894       0.14608646       0.25028007 </v>
   <v>       0.85908132       0.10150500       0.25046070 </v>
   <v>       0.15971818       0.43138562       0.25132233 </v>
   <v>       0.40935636       0.35668692       0.24927275 </v>
   <v>       0.66229865       0.39339629       0.25193018 </v>
   <v>       0.90919955       0.33880897       0.25012892 </v>
   <v>       0.60722894       0.64608646       0.24971993 </v>
   <v>       0.85908132       0.60150500       0.24953930 </v>
   <v>       0.15971818       0.93138562       0.24867767 </v>
   <v>       0.40935636       0.85668692       0.25072725 </v>
   <v>       0.66229865       0.89339629       0.24806982 </v>
   <v>       0.90919955       0.83880897       0.24987108 </v>
   <v>       0.12900569       0.12117083       0.50529661 </v>
   <v>       0.37773458       0.12805784       0.50396331 </v>
   <v>       0.62935239       0.12466303       0.50931333 </v>
   <v>       0.87881262       0.13130524       0.50898482 </v>
   <v>       0.12118738       0.36869476       0.49101518 </v>
   <v>       0.37064761       0.37533697       0.49068667 </v>
   <v>       0.62226542       0.37194216       0.49603669 </v>
   <v>       0.87099431       0.37882917       0.49470339 </v>
   <v>       0.12753883       0.61939301       0.50619777 </v>
   <v>       0.37764159       0.62661819       0.50365018 </v>
   <v>       0.62815683       0.62306905       0.50852214 </v>
   <v>       0.87831546       0.62952857       0.50871202 </v>
   <v>       0.12168454       0.87047143       0.49128798 </v>
   <v>       0.37184317       0.87693095       0.49147786 </v>
   <v>       0.62235841       0.87338181       0.49634982 </v>
   <v>       0.87246117       0.88060699       0.49380223 </v>
   <v>       0.09080045       0.16119103       0.74987108 </v>
   <v>       0.33770135       0.10660371       0.74806982 </v>
   <v>       0.59064364       0.14331308       0.75072725 </v>
   <v>       0.84028182       0.06861438       0.74867767 </v>
   <v>       0.14091868       0.39849500       0.74953930 </v>
   <v>       0.39277106       0.35391354       0.74971993 </v>
   <v>       0.09080045       0.66119103       0.75012892 </v>
   <v>       0.33770135       0.60660371       0.75193018 </v>
   <v>       0.59064364       0.64331308       0.74927275 </v>
   <v>       0.84028182       0.56861438       0.75132233 </v>
   <v>       0.14091868       0.89849500       0.75046070 </v>
   <v>       0.39277106       0.85391354       0.75028007 </v>
   <v>       0.12753883       0.11939301       0.99380223 </v>
   <v>       0.37764159       0.12661819       0.99634982 </v>
   <v>       0.62815683       0.12306905       0.99147786 </v>
   <v>       0.87831546       0.12952857       0.99128798 </v>
   <v>       0.12168454       0.37047143       0.00871202 </v>
   <v>       0.37184317       0.37693095       0.00852214 </v>
   <v>       0.62235841       0.37338181       0.00365018 </v>
   <v>       0.87246117       0.38060699       0.00619777 </v>
   <v>       0.12900569       0.62117083       0.99470339 </v>
   <v>       0.37773458       0.62805784       0.99603669 </v>
   <v>       0.62935239       0.62466303       0.99068667 </v>
   <v>       0.87881262       0.63130524       0.99101518 </v>
   <v>       0.12118738       0.86869476       0.00898482 </v>
   <v>       0.37064761       0.87533697       0.00931333 </v>
   <v>       0.62226542       0.87194216       0.00396331 </v>
   <v>       0.87099431       0.87882917       0.00529661 </v>
  </varray>
 </structure>
</modeling>
