<?xml version="1.0" encoding="ISO-8859-1"?>
<modeling>
 <generator>
  <i name="program" type="string">vasp </i>
  <i name="version" type="string">5.4.1  </i>
  <i name="subversion" type="string">05Feb16 (build Jan 25 2017 20:16:33) complex                          parallel </i>
  <i name="platform" type="string">BWXE6 </i>
  <i name="date" type="string">2019 06 26 </i>
  <i name="time" type="string">08:45:30 </i>
 </generator>
 <incar>
  <i type="string" name="SYSTEM"> STF</i>
  <i type="string" name="PREC">normal</i>
  <i type="string" name="ALGO"> Fast</i>
  <i type="int" name="ISPIN">     2</i>
  <i type="int" name="NELM">    40</i>
  <i type="int" name="NELMIN">     8</i>
  <i type="int" name="IBRION">     2</i>
  <i name="EDIFF">      0.00010000</i>
  <i name="EDIFFG">     -0.03000000</i>
  <i type="int" name="NSW">    30</i>
  <i type="int" name="ISIF">     3</i>
  <i name="ENCUT">    520.00000000</i>
  <i type="int" name="NBANDS">   768</i>
  <v name="MAGMOM">      0.60000000      0.60000000      0.60000000      0.60000000      0.60000000      0.60000000      0.60000000      0.60000000      0.60000000      0.60000000      0.60000000      0.60000000      0.60000000      0.60000000      0.60000000      0.60000000      0.60000000      0.60000000      0.60000000      0.60000000
      0.60000000      0.60000000      0.60000000      0.60000000      0.60000000      0.60000000      0.60000000      0.60000000      0.60000000      0.60000000      0.60000000      0.60000000      0.60000000      0.60000000      0.60000000      0.60000000      0.60000000      0.60000000      0.60000000      0.60000000
      0.60000000      0.60000000      0.60000000      0.60000000      0.60000000      0.60000000      0.60000000      0.60000000      5.00000000      5.00000000      5.00000000      5.00000000      5.00000000      5.00000000      5.00000000      5.00000000      5.00000000      5.00000000      5.00000000      5.00000000
      5.00000000      5.00000000      5.00000000      5.00000000      0.60000000      0.60000000      0.60000000      0.60000000      0.60000000      0.60000000      0.60000000      0.60000000      0.60000000      0.60000000      0.60000000      0.60000000      0.60000000      0.60000000      0.60000000      0.60000000
      0.60000000      0.60000000      0.60000000      0.60000000      0.60000000      0.60000000      0.60000000      0.60000000      0.60000000      0.60000000      0.60000000      0.60000000      0.60000000      0.60000000      0.60000000      0.60000000      0.60000000      0.60000000      0.60000000      0.60000000
      0.60000000      0.60000000      0.60000000      0.60000000      0.60000000      0.60000000      0.60000000      0.60000000      0.60000000      0.60000000      0.60000000      0.60000000      0.60000000      0.60000000      0.60000000      0.60000000      0.60000000      0.60000000      0.60000000      0.60000000
      0.60000000      0.60000000      0.60000000      0.60000000      0.60000000      0.60000000      0.60000000      0.60000000      0.60000000      0.60000000      0.60000000      0.60000000      0.60000000      0.60000000      0.60000000      0.60000000      0.60000000      0.60000000      0.60000000      0.60000000
      0.60000000      0.60000000      0.60000000      0.60000000      0.60000000      0.60000000      0.60000000      0.60000000      0.60000000      0.60000000      0.60000000      0.60000000</v>
  <i type="string" name="LREAL"> Auto</i>
  <i type="int" name="ISMEAR">     0</i>
  <i name="SIGMA">      0.05000000</i>
  <i type="int" name="LMAXMIX">     4</i>
  <v type="int" name="KPOINT_BSE">    -1     0     0     0</v>
  <i type="int" name="NELM">    40</i>
  <i type="logical" name="LDAU"> T  </i>
  <v type="int" name="LDAUTYPE">     2</v>
  <v type="int" name="LDAUL">     0     2     2     0</v>
  <v name="LDAUU">      0.00000000      3.00000000      5.00000000      0.00000000</v>
  <v name="LDAUJ">      0.00000000      0.00000000      0.00000000      0.00000000</v>
  <i type="int" name="LDAUPRINT">     1</i>
 </incar>
 <kpoints>
  <generation param="Monkhorst-Pack">
   <v type="int" name="divisions">       2        2        2 </v>
   <v name="usershift">      0.00000000       0.00000000       0.00000000 </v>
   <v name="genvec1">      0.50000000      -0.00000000       0.00000000 </v>
   <v name="genvec2">      0.00000000       0.50000000       0.00000000 </v>
   <v name="genvec3">     -0.00000000       0.00000000       0.50000000 </v>
   <v name="shift">      0.50000000       0.50000000       0.50000000 </v>
  </generation>
  <varray name="kpointlist" >
   <v>       0.25000000       0.25000000       0.25000000 </v>
   <v>      -0.25000000       0.25000000       0.25000000 </v>
   <v>       0.25000000      -0.25000000       0.25000000 </v>
   <v>      -0.25000000      -0.25000000       0.25000000 </v>
  </varray>
  <varray name="weights" >
   <v>       0.25000000 </v>
   <v>       0.25000000 </v>
   <v>       0.25000000 </v>
   <v>       0.25000000 </v>
  </varray>
 </kpoints>
 <parameters>
  <separator name="general" >
   <i type="string" name="SYSTEM">STF</i>
   <i type="logical" name="LCOMPAT"> F  </i>
  </separator>
  <separator name="electronic" >
   <i type="string" name="PREC">normal</i>
   <i name="ENMAX">    520.00000000</i>
   <i name="ENAUG">    605.39200000</i>
   <i name="EDIFF">      0.00010000</i>
   <i type="int" name="IALGO">    68</i>
   <i type="int" name="IWAVPR">    11</i>
   <i type="int" name="NBANDS">   768</i>
   <i name="NELECT">   1040.00000000</i>
   <i type="int" name="TURBO">     0</i>
   <i type="int" name="IRESTART">     0</i>
   <i type="int" name="NREBOOT">     0</i>
   <i type="int" name="NMIN">     0</i>
   <i name="EREF">      0.00000000</i>
   <separator name="electronic smearing" >
    <i type="int" name="ISMEAR">     0</i>
    <i name="SIGMA">      0.05000000</i>
    <i name="KSPACING">      0.50000000</i>
    <i type="logical" name="KGAMMA"> T  </i>
   </separator>
   <separator name="electronic projectors" >
    <i type="logical" name="LREAL"> T  </i>
    <v name="ROPT">     -0.00050000     -0.00050000     -0.00050000     -0.00050000</v>
    <i type="int" name="LMAXPAW">  -100</i>
    <i type="int" name="LMAXMIX">     4</i>
    <i type="logical" name="NLSPLINE"> F  </i>
   </separator>
   <separator name="electronic startup" >
    <i type="int" name="ISTART">     1</i>
    <i type="int" name="ICHARG">     0</i>
    <i type="int" name="INIWAV">     1</i>
   </separator>
   <separator name="electronic spin" >
    <i type="int" name="ISPIN">     2</i>
    <i type="logical" name="LNONCOLLINEAR"> F  </i>
    <v name="MAGMOM">      0.60000000      0.60000000      0.60000000      0.60000000      0.60000000      0.60000000      0.60000000      0.60000000      0.60000000      0.60000000      0.60000000      0.60000000      0.60000000      0.60000000      0.60000000      0.60000000      0.60000000      0.60000000      0.60000000      0.60000000
      0.60000000      0.60000000      0.60000000      0.60000000      0.60000000      0.60000000      0.60000000      0.60000000      0.60000000      0.60000000      0.60000000      0.60000000      0.60000000      0.60000000      0.60000000      0.60000000      0.60000000      0.60000000      0.60000000      0.60000000
      0.60000000      0.60000000      0.60000000      0.60000000      0.60000000      0.60000000      0.60000000      0.60000000      5.00000000      5.00000000      5.00000000      5.00000000      5.00000000      5.00000000      5.00000000      5.00000000      5.00000000      5.00000000      5.00000000      5.00000000
      5.00000000      5.00000000      5.00000000      5.00000000      0.60000000      0.60000000      0.60000000      0.60000000      0.60000000      0.60000000      0.60000000      0.60000000      0.60000000      0.60000000      0.60000000      0.60000000      0.60000000      0.60000000      0.60000000      0.60000000
      0.60000000      0.60000000      0.60000000      0.60000000      0.60000000      0.60000000      0.60000000      0.60000000      0.60000000      0.60000000      0.60000000      0.60000000      0.60000000      0.60000000      0.60000000      0.60000000      0.60000000      0.60000000      0.60000000      0.60000000
      0.60000000      0.60000000      0.60000000      0.60000000      0.60000000      0.60000000      0.60000000      0.60000000      0.60000000      0.60000000      0.60000000      0.60000000      0.60000000      0.60000000      0.60000000      0.60000000      0.60000000      0.60000000      0.60000000      0.60000000
      0.60000000      0.60000000      0.60000000      0.60000000      0.60000000      0.60000000      0.60000000      0.60000000      0.60000000      0.60000000      0.60000000      0.60000000      0.60000000      0.60000000      0.60000000      0.60000000      0.60000000      0.60000000      0.60000000      0.60000000
      0.60000000      0.60000000      0.60000000      0.60000000      0.60000000      0.60000000      0.60000000      0.60000000      0.60000000      0.60000000      0.60000000      0.60000000</v>
    <i name="NUPDOWN">     -1.00000000</i>
    <i type="logical" name="LSORBIT"> F  </i>
    <v name="SAXIS">      0.00000000      0.00000000      1.00000000</v>
    <i type="logical" name="LSPIRAL"> F  </i>
    <v name="QSPIRAL">      0.00000000      0.00000000      0.00000000</v>
    <i type="logical" name="LZEROZ"> F  </i>
   </separator>
   <separator name="electronic exchange-correlation" >
    <i type="logical" name="LASPH"> F  </i>
    <i type="logical" name="LMETAGGA"> F  </i>
   </separator>
   <separator name="electronic convergence" >
    <i type="int" name="NELM">    40</i>
    <i type="int" name="NELMDL">     0</i>
    <i type="int" name="NELMIN">     8</i>
    <i name="ENINI">    520.00000000</i>
    <separator name="electronic convergence detail" >
     <i type="logical" name="LDIAG"> T  </i>
     <i type="logical" name="LSUBROT"> F  </i>
     <i name="WEIMIN">      0.00100000</i>
     <i name="EBREAK">      0.00000003</i>
     <i name="DEPER">      0.30000000</i>
     <i type="int" name="NRMM">     4</i>
     <i name="TIME">      0.40000000</i>
    </separator>
   </separator>
   <separator name="electronic mixer" >
    <i name="AMIX">      0.40000000</i>
    <i name="BMIX">      1.00000000</i>
    <i name="AMIN">      0.10000000</i>
    <i name="AMIX_MAG">      1.60000000</i>
    <i name="BMIX_MAG">      1.00000000</i>
    <separator name="electronic mixer details" >
     <i type="int" name="IMIX">     4</i>
     <i type="logical" name="MIXFIRST"> F  </i>
     <i type="int" name="MAXMIX">   -45</i>
     <i name="WC">    100.00000000</i>
     <i type="int" name="INIMIX">     1</i>
     <i type="int" name="MIXPRE">     1</i>
     <i type="int" name="MREMOVE">     5</i>
    </separator>
   </separator>
   <separator name="electronic dipolcorrection" >
    <i type="logical" name="LDIPOL"> F  </i>
    <i type="logical" name="LMONO"> F  </i>
    <i type="int" name="IDIPOL">     0</i>
    <i name="EPSILON">      1.00000000</i>
    <v name="DIPOL">   -100.00000000   -100.00000000   -100.00000000</v>
    <i name="EFIELD">      0.00000000</i>
   </separator>
  </separator>
  <separator name="grids" >
   <i type="int" name="NGX">    64</i>
   <i type="int" name="NGY">    64</i>
   <i type="int" name="NGZ">    90</i>
   <i type="int" name="NGXF">   128</i>
   <i type="int" name="NGYF">   128</i>
   <i type="int" name="NGZF">   180</i>
   <i type="logical" name="ADDGRID"> F  </i>
  </separator>
  <separator name="ionic" >
   <i type="int" name="NSW">    30</i>
   <i type="int" name="IBRION">     2</i>
   <i type="int" name="ISIF">     3</i>
   <i name="PSTRESS">      0.00000000</i>
   <i name="EDIFFG">     -0.03000000</i>
   <i type="int" name="NFREE">     1</i>
   <i name="POTIM">      0.50000000</i>
   <i name="SMASS">     -3.00000000</i>
   <i name="SCALEE">      1.00000000</i>
  </separator>
  <separator name="ionic md" >
   <i name="TEBEG">      0.00010000</i>
   <i name="TEEND">      0.00010000</i>
   <i type="int" name="NBLOCK">     1</i>
   <i type="int" name="KBLOCK">    30</i>
   <i type="int" name="NPACO">   256</i>
   <i name="APACO">     16.00000000</i>
  </separator>
  <separator name="symmetry" >
   <i type="int" name="ISYM">     2</i>
   <i name="SYMPREC">      0.00001000</i>
  </separator>
  <separator name="dos" >
   <i type="logical" name="LORBIT"> F  </i>
   <v name="RWIGS">     -1.00000000     -1.00000000     -1.00000000     -1.00000000</v>
   <i type="int" name="NEDOS">   301</i>
   <i name="EMIN">     10.00000000</i>
   <i name="EMAX">    -10.00000000</i>
   <i name="EFERMI">      0.00000000</i>
  </separator>
  <separator name="writing" >
   <i type="int" name="NWRITE">     2</i>
   <i type="logical" name="LWAVE"> T  </i>
   <i type="logical" name="LCHARG"> T  </i>
   <i type="logical" name="LPARD"> F  </i>
   <i type="logical" name="LVTOT"> F  </i>
   <i type="logical" name="LVHAR"> F  </i>
   <i type="logical" name="LELF"> F  </i>
   <i type="logical" name="LOPTICS"> F  </i>
   <v name="STM">      0.00000000      0.00000000      0.00000000      0.00000000      0.00000000      0.00000000      0.00000000</v>
  </separator>
  <separator name="performance" >
   <i type="int" name="NPAR">     2</i>
   <i type="int" name="NSIM">     4</i>
   <i type="int" name="NBLK">    -1</i>
   <i type="logical" name="LPLANE"> T  </i>
   <i type="logical" name="LSCALAPACK"> T  </i>
   <i type="logical" name="LSCAAWARE"> F  </i>
   <i type="logical" name="LSCALU"> F  </i>
   <i type="logical" name="LASYNC"> F  </i>
   <i type="logical" name="LORBITALREAL"> F  </i>
  </separator>
  <separator name="miscellaneous" >
   <i type="int" name="IDIOT">     3</i>
   <i type="logical" name="LMUSIC"> F  </i>
   <v name="POMASS">     87.62000000     47.88000000     55.84700000     16.00000000</v>
   <v name="DARWINR">      0.00000000      0.00000000      0.00000000      0.00000000</v>
   <v name="DARWINV">      1.00000000      1.00000000      1.00000000      1.00000000</v>
   <i type="logical" name="LCORR"> T  </i>
  </separator>
  <i type="logical" name="GGA_COMPAT"> T  </i>
  <i type="logical" name="LBERRY"> F  </i>
  <i type="int" name="ICORELEVEL">     0</i>
  <i type="logical" name="LDAU"> T  </i>
  <v type="int" name="LDAUTYPE">     2</v>
  <v type="int" name="LDAUL">     0</v>
  <v name="LDAUU">      0.00000000</v>
  <v name="LDAUJ">      0.00000000</v>
  <i type="int" name="LDAUPRINT">     1</i>
  <i type="int" name="I_CONSTRAINED_M">     0</i>
  <separator name="electronic exchange-correlation" >
   <i type="string" name="GGA">--</i>
   <i type="int" name="VOSKOWN">     0</i>
   <i type="logical" name="LHFCALC"> F  </i>
   <i type="string" name="PRECFOCK"></i>
   <i type="logical" name="LSYMGRAD"> F  </i>
   <i type="logical" name="LHFONE"> F  </i>
   <i type="logical" name="LRHFCALC"> F  </i>
   <i type="logical" name="LTHOMAS"> F  </i>
   <i type="logical" name="LMODELHF"> F  </i>
   <i name="ENCUT4O">     -1.00000000</i>
   <i type="int" name="EXXOEP">     0</i>
   <i type="int" name="FOURORBIT">     0</i>
   <i name="AEXX">      0.00000000</i>
   <i name="HFALPHA">      0.00000000</i>
   <i name="MCALPHA">      0.00000000</i>
   <i name="ALDAX">      1.00000000</i>
   <i name="AGGAX">      1.00000000</i>
   <i name="ALDAC">      1.00000000</i>
   <i name="AGGAC">      1.00000000</i>
   <i type="int" name="NKREDX">     1</i>
   <i type="int" name="NKREDY">     1</i>
   <i type="int" name="NKREDZ">     1</i>
   <i type="logical" name="SHIFTRED"> F  </i>
   <i type="logical" name="ODDONLY"> F  </i>
   <i type="logical" name="EVENONLY"> F  </i>
   <i type="int" name="LMAXFOCK">     0</i>
   <i type="int" name="NMAXFOCKAE">     0</i>
   <i type="logical" name="LFOCKAEDFT"> F  </i>
   <i name="HFSCREEN">      0.00000000</i>
   <i name="HFSCREENC">      0.00000000</i>
   <i type="int" name="NBANDSGWLOW">     0</i>
  </separator>
  <separator name="vdW DFT" >
   <i type="logical" name="LUSE_VDW"> F  </i>
   <i name="Zab_VDW">     -0.84910000</i>
   <i name="PARAM1">      0.12340000</i>
   <i name="PARAM2">      1.00000000</i>
   <i name="PARAM3">      0.00000000</i>
  </separator>
  <separator name="model GW" >
   <i type="int" name="MODEL_GW">     0</i>
   <i name="MODEL_EPS0">      7.92002263</i>
   <i name="MODEL_ALPHA">      1.00000000</i>
  </separator>
  <separator name="linear response parameters" >
   <i type="logical" name="LEPSILON"> F  </i>
   <i type="logical" name="LRPA"> F  </i>
   <i type="logical" name="LNABLA"> F  </i>
   <i type="logical" name="LVEL"> F  </i>
   <i type="int" name="KINTER">     0</i>
   <i name="CSHIFT">      0.10000000</i>
   <i name="OMEGAMAX">     -1.00000000</i>
   <i name="DEG_THRESHOLD">      0.00200000</i>
  </separator>
  <separator name="orbital magnetization" >
   <i type="logical" name="NUCIND"> F  </i>
   <v name="MAGPOS">      0.00000000      0.00000000      0.00000000</v>
   <i type="logical" name="LNICSALL"> T  </i>
   <i type="logical" name="ORBITALMAG"> F  </i>
   <i type="logical" name="LMAGBLOCH"> F  </i>
   <i type="logical" name="LCHIMAG"> F  </i>
   <i type="logical" name="LGAUGE"> T  </i>
   <i type="int" name="MAGATOM">     0</i>
   <v name="MAGDIPOL">      0.00000000      0.00000000      0.00000000</v>
   <v name="AVECCONST">      0.00000000      0.00000000      0.00000000</v>
  </separator>
  <separator name="response functions" >
   <i type="logical" name="LADDER"> F  </i>
   <i type="logical" name="LFXC"> F  </i>
   <i type="logical" name="LHARTREE"> T  </i>
   <i type="int" name="IBSE">     0</i>
   <v type="int" name="KPOINT">    -1     0     0     0</v>
   <i type="logical" name="LTCTE"> F  </i>
   <i type="logical" name="LTETE"> F  </i>
   <i type="logical" name="LTRIPLET"> F  </i>
   <i type="logical" name="LFXCEPS"> F  </i>
   <i type="logical" name="LFXHEG"> F  </i>
   <i type="int" name="NATURALO">     0</i>
   <i type="logical" name="L2ORDER"> F  </i>
   <i type="logical" name="LUSEW"> F  </i>
   <i name="ENCUTGW">     -2.00000000</i>
   <i name="ENCUTGWSOFT">     -2.00000000</i>
   <i name="ENCUTLF">     -1.00000000</i>
   <i type="int" name="LMAXMP2">    -1</i>
   <i name="SCISSOR">      0.00000000</i>
   <i type="int" name="NOMEGA">     0</i>
   <i type="int" name="NOMEGAR">     0</i>
   <i type="int" name="NBANDSGW">    -1</i>
   <i type="int" name="NBANDSO">    -1</i>
   <i type="int" name="NBANDSV">    -1</i>
   <i type="int" name="NELM">    40</i>
   <i type="int" name="NELMHF">     1</i>
   <i type="int" name="DIM">     3</i>
   <i type="int" name="ANTIRES">     0</i>
   <i name="OMEGAMAX">    -30.00000000</i>
   <i name="OMEGAMIN">    -30.00000000</i>
   <i name="OMEGATL">   -200.00000000</i>
   <i type="int" name="OMEGAGRID">     0</i>
   <i name="CSHIFT">     -0.10000000</i>
   <i type="logical" name="SELFENERGY"> F  </i>
   <i type="logical" name="LSPECTRAL"> F  </i>
   <i type="logical" name="LSPECTRALGW"> F  </i>
   <i type="logical" name="LSINGLES"> F  </i>
   <i type="logical" name="LFERMIGW"> F  </i>
   <i type="logical" name="ODDONLYGW"> F  </i>
   <i type="logical" name="EVENONLYGW"> F  </i>
   <i type="int" name="NKREDLFX">     1</i>
   <i type="int" name="NKREDLFY">     1</i>
   <i type="int" name="NKREDLFZ">     1</i>
   <i type="int" name="MAXMEM">  1800</i>
   <i type="int" name="TELESCOPE">     0</i>
   <i type="int" name="TAUPAR">     1</i>
   <i type="int" name="OMEGAPAR">    -1</i>
   <i name="LAMBDA">      1.00000000</i>
  </separator>
  <separator name="External order field" >
   <i name="OFIELD_KAPPA">      0.00000000</i>
   <v name="OFIELD_K">      0.00000000      0.00000000      0.00000000</v>
   <i name="OFIELD_Q6_NEAR">      0.00000000</i>
   <i name="OFIELD_Q6_FAR">      0.00000000</i>
   <i name="OFIELD_A">      0.00000000</i>
  </separator>
 </parameters>
 <atominfo>
  <atoms>     152 </atoms>
  <types>       4 </types>
  <array name="atoms" >
   <dimension dim="1">ion</dimension>
   <field type="string">element</field>
   <field type="int">atomtype</field>
   <set>
    <rc><c>Sr</c><c>   1</c></rc>
    <rc><c>Sr</c><c>   1</c></rc>
    <rc><c>Sr</c><c>   1</c></rc>
    <rc><c>Sr</c><c>   1</c></rc>
    <rc><c>Sr</c><c>   1</c></rc>
    <rc><c>Sr</c><c>   1</c></rc>
    <rc><c>Sr</c><c>   1</c></rc>
    <rc><c>Sr</c><c>   1</c></rc>
    <rc><c>Sr</c><c>   1</c></rc>
    <rc><c>Sr</c><c>   1</c></rc>
    <rc><c>Sr</c><c>   1</c></rc>
    <rc><c>Sr</c><c>   1</c></rc>
    <rc><c>Sr</c><c>   1</c></rc>
    <rc><c>Sr</c><c>   1</c></rc>
    <rc><c>Sr</c><c>   1</c></rc>
    <rc><c>Sr</c><c>   1</c></rc>
    <rc><c>Sr</c><c>   1</c></rc>
    <rc><c>Sr</c><c>   1</c></rc>
    <rc><c>Sr</c><c>   1</c></rc>
    <rc><c>Sr</c><c>   1</c></rc>
    <rc><c>Sr</c><c>   1</c></rc>
    <rc><c>Sr</c><c>   1</c></rc>
    <rc><c>Sr</c><c>   1</c></rc>
    <rc><c>Sr</c><c>   1</c></rc>
    <rc><c>Sr</c><c>   1</c></rc>
    <rc><c>Sr</c><c>   1</c></rc>
    <rc><c>Sr</c><c>   1</c></rc>
    <rc><c>Sr</c><c>   1</c></rc>
    <rc><c>Sr</c><c>   1</c></rc>
    <rc><c>Sr</c><c>   1</c></rc>
    <rc><c>Sr</c><c>   1</c></rc>
    <rc><c>Sr</c><c>   1</c></rc>
    <rc><c>Ti</c><c>   2</c></rc>
    <rc><c>Ti</c><c>   2</c></rc>
    <rc><c>Ti</c><c>   2</c></rc>
    <rc><c>Ti</c><c>   2</c></rc>
    <rc><c>Ti</c><c>   2</c></rc>
    <rc><c>Ti</c><c>   2</c></rc>
    <rc><c>Ti</c><c>   2</c></rc>
    <rc><c>Ti</c><c>   2</c></rc>
    <rc><c>Ti</c><c>   2</c></rc>
    <rc><c>Ti</c><c>   2</c></rc>
    <rc><c>Ti</c><c>   2</c></rc>
    <rc><c>Ti</c><c>   2</c></rc>
    <rc><c>Ti</c><c>   2</c></rc>
    <rc><c>Ti</c><c>   2</c></rc>
    <rc><c>Ti</c><c>   2</c></rc>
    <rc><c>Ti</c><c>   2</c></rc>
    <rc><c>Fe</c><c>   3</c></rc>
    <rc><c>Fe</c><c>   3</c></rc>
    <rc><c>Fe</c><c>   3</c></rc>
    <rc><c>Fe</c><c>   3</c></rc>
    <rc><c>Fe</c><c>   3</c></rc>
    <rc><c>Fe</c><c>   3</c></rc>
    <rc><c>Fe</c><c>   3</c></rc>
    <rc><c>Fe</c><c>   3</c></rc>
    <rc><c>Fe</c><c>   3</c></rc>
    <rc><c>Fe</c><c>   3</c></rc>
    <rc><c>Fe</c><c>   3</c></rc>
    <rc><c>Fe</c><c>   3</c></rc>
    <rc><c>Fe</c><c>   3</c></rc>
    <rc><c>Fe</c><c>   3</c></rc>
    <rc><c>Fe</c><c>   3</c></rc>
    <rc><c>Fe</c><c>   3</c></rc>
    <rc><c>O </c><c>   4</c></rc>
    <rc><c>O </c><c>   4</c></rc>
    <rc><c>O </c><c>   4</c></rc>
    <rc><c>O </c><c>   4</c></rc>
    <rc><c>O </c><c>   4</c></rc>
    <rc><c>O </c><c>   4</c></rc>
    <rc><c>O </c><c>   4</c></rc>
    <rc><c>O </c><c>   4</c></rc>
    <rc><c>O </c><c>   4</c></rc>
    <rc><c>O </c><c>   4</c></rc>
    <rc><c>O </c><c>   4</c></rc>
    <rc><c>O </c><c>   4</c></rc>
    <rc><c>O </c><c>   4</c></rc>
    <rc><c>O </c><c>   4</c></rc>
    <rc><c>O </c><c>   4</c></rc>
    <rc><c>O </c><c>   4</c></rc>
    <rc><c>O </c><c>   4</c></rc>
    <rc><c>O </c><c>   4</c></rc>
    <rc><c>O </c><c>   4</c></rc>
    <rc><c>O </c><c>   4</c></rc>
    <rc><c>O </c><c>   4</c></rc>
    <rc><c>O </c><c>   4</c></rc>
    <rc><c>O </c><c>   4</c></rc>
    <rc><c>O </c><c>   4</c></rc>
    <rc><c>O </c><c>   4</c></rc>
    <rc><c>O </c><c>   4</c></rc>
    <rc><c>O </c><c>   4</c></rc>
    <rc><c>O </c><c>   4</c></rc>
    <rc><c>O </c><c>   4</c></rc>
    <rc><c>O </c><c>   4</c></rc>
    <rc><c>O </c><c>   4</c></rc>
    <rc><c>O </c><c>   4</c></rc>
    <rc><c>O </c><c>   4</c></rc>
    <rc><c>O </c><c>   4</c></rc>
    <rc><c>O </c><c>   4</c></rc>
    <rc><c>O </c><c>   4</c></rc>
    <rc><c>O </c><c>   4</c></rc>
    <rc><c>O </c><c>   4</c></rc>
    <rc><c>O </c><c>   4</c></rc>
    <rc><c>O </c><c>   4</c></rc>
    <rc><c>O </c><c>   4</c></rc>
    <rc><c>O </c><c>   4</c></rc>
    <rc><c>O </c><c>   4</c></rc>
    <rc><c>O </c><c>   4</c></rc>
    <rc><c>O </c><c>   4</c></rc>
    <rc><c>O </c><c>   4</c></rc>
    <rc><c>O </c><c>   4</c></rc>
    <rc><c>O </c><c>   4</c></rc>
    <rc><c>O </c><c>   4</c></rc>
    <rc><c>O </c><c>   4</c></rc>
    <rc><c>O </c><c>   4</c></rc>
    <rc><c>O </c><c>   4</c></rc>
    <rc><c>O </c><c>   4</c></rc>
    <rc><c>O </c><c>   4</c></rc>
    <rc><c>O </c><c>   4</c></rc>
    <rc><c>O </c><c>   4</c></rc>
    <rc><c>O </c><c>   4</c></rc>
    <rc><c>O </c><c>   4</c></rc>
    <rc><c>O </c><c>   4</c></rc>
    <rc><c>O </c><c>   4</c></rc>
    <rc><c>O </c><c>   4</c></rc>
    <rc><c>O </c><c>   4</c></rc>
    <rc><c>O </c><c>   4</c></rc>
    <rc><c>O </c><c>   4</c></rc>
    <rc><c>O </c><c>   4</c></rc>
    <rc><c>O </c><c>   4</c></rc>
    <rc><c>O </c><c>   4</c></rc>
    <rc><c>O </c><c>   4</c></rc>
    <rc><c>O </c><c>   4</c></rc>
    <rc><c>O </c><c>   4</c></rc>
    <rc><c>O </c><c>   4</c></rc>
    <rc><c>O </c><c>   4</c></rc>
    <rc><c>O </c><c>   4</c></rc>
    <rc><c>O </c><c>   4</c></rc>
    <rc><c>O </c><c>   4</c></rc>
    <rc><c>O </c><c>   4</c></rc>
    <rc><c>O </c><c>   4</c></rc>
    <rc><c>O </c><c>   4</c></rc>
    <rc><c>O </c><c>   4</c></rc>
    <rc><c>O </c><c>   4</c></rc>
    <rc><c>O </c><c>   4</c></rc>
    <rc><c>O </c><c>   4</c></rc>
    <rc><c>O </c><c>   4</c></rc>
    <rc><c>O </c><c>   4</c></rc>
    <rc><c>O </c><c>   4</c></rc>
    <rc><c>O </c><c>   4</c></rc>
    <rc><c>O </c><c>   4</c></rc>
    <rc><c>O </c><c>   4</c></rc>
   </set>
  </array>
  <array name="atomtypes" >
   <dimension dim="1">type</dimension>
   <field type="int">atomspertype</field>
   <field type="string">element</field>
   <field>mass</field>
   <field>valence</field>
   <field type="string">pseudopotential</field>
   <set>
    <rc><c>  32</c><c>Sr</c><c>     87.62000000</c><c>     10.00000000</c><c>  PAW_PBE Sr_sv 07Sep2000               </c></rc>
    <rc><c>  16</c><c>Ti</c><c>     47.88000000</c><c>      4.00000000</c><c>  PAW_PBE Ti 08Apr2002                  </c></rc>
    <rc><c>  16</c><c>Fe</c><c>     55.84700000</c><c>      8.00000000</c><c>  PAW_PBE Fe 06Sep2000                  </c></rc>
    <rc><c>  88</c><c>O </c><c>     16.00000000</c><c>      6.00000000</c><c>  PAW_PBE O 08Apr2002                   </c></rc>
   </set>
  </array>
 </atominfo>
 <structure name="initialpos" >
  <crystal>
   <varray name="basis" >
    <v>      11.24387678      -0.00169702       0.00556198 </v>
    <v>      -0.00146102      11.26418936      -0.00009565 </v>
    <v>       0.00800669      -0.00029911      15.84173911 </v>
   </varray>
   <i name="volume">   2006.40573204 </i>
   <varray name="rec_basis" >
    <v>       0.08893732       0.00001154      -0.00004495 </v>
    <v>       0.00001340       0.08877692       0.00000167 </v>
    <v>      -0.00003123       0.00000053       0.06312440 </v>
   </varray>
  </crystal>
  <varray name="positions" >
   <v>       0.01397013       0.26095631       0.12389766 </v>
   <v>       0.98712185       0.23960498       0.62195688 </v>
   <v>       0.99190534       0.74163154       0.12873452 </v>
   <v>       0.99315007       0.75804940       0.62487286 </v>
   <v>       0.49725191       0.25703821       0.12221795 </v>
   <v>       0.51207266       0.24891881       0.61997523 </v>
   <v>       0.51578844       0.73944504       0.12438978 </v>
   <v>       0.50539012       0.74918317       0.62289738 </v>
   <v>       0.00321702       0.24777159       0.37911556 </v>
   <v>       0.98888053       0.24299878       0.87603416 </v>
   <v>       0.98815314       0.74843611       0.38745737 </v>
   <v>       0.00127056       0.75267855       0.86621574 </v>
   <v>       0.49599633       0.25490482       0.38246503 </v>
   <v>       0.51090949       0.24917526       0.87628230 </v>
   <v>       0.50823400       0.74737942       0.38315724 </v>
   <v>       0.49831805       0.74929423       0.86377967 </v>
   <v>       0.25555410       0.02215529       0.12481979 </v>
   <v>       0.24969626       0.99674688       0.62308370 </v>
   <v>       0.26173121       0.48388847       0.12385418 </v>
   <v>       0.25536408       0.51198322       0.62569120 </v>
   <v>       0.74538750       0.99944579       0.11864520 </v>
   <v>       0.75103474       0.99476958       0.62312373 </v>
   <v>       0.74722194       0.49374298       0.12856294 </v>
   <v>       0.73406285       0.49986982       0.62138463 </v>
   <v>       0.24535343       0.01733129       0.38377669 </v>
   <v>       0.25256296       0.00072706       0.86829056 </v>
   <v>       0.25482567       0.49030812       0.37519720 </v>
   <v>       0.25687949       0.50677045       0.87730524 </v>
   <v>       0.75311707       0.99426180       0.38402528 </v>
   <v>       0.75048911       0.00351118       0.86936199 </v>
   <v>       0.73680058       0.49932081       0.38378875 </v>
   <v>       0.74546864       0.49462857       0.86959237 </v>
   <v>       0.00469735       0.49201278       0.99963646 </v>
   <v>       0.99085175       0.50646824       0.49989508 </v>
   <v>       0.49760709       0.00421171       0.99924047 </v>
   <v>       0.50345155       0.99993872       0.49871884 </v>
   <v>       0.25759123       0.24902521       0.99733661 </v>
   <v>       0.26001154       0.74941306       0.00269918 </v>
   <v>       0.25135640       0.75578900       0.50319737 </v>
   <v>       0.74157278       0.75600598       0.99731777 </v>
   <v>       0.23628043       0.24506679       0.74888722 </v>
   <v>       0.24525032       0.72965875       0.24703098 </v>
   <v>       0.76247465       0.25362985       0.24982355 </v>
   <v>       0.75041063       0.24988903       0.74945998 </v>
   <v>       0.99722716       0.99348036       0.75136605 </v>
   <v>       0.00236682       0.50254047       0.74625532 </v>
   <v>       0.50173997       0.99833527       0.74853000 </v>
   <v>       0.50206800       0.49014615       0.25076676 </v>
   <v>       0.99287381       0.00919687       0.00276471 </v>
   <v>       0.99799433       0.99886393       0.50431012 </v>
   <v>       0.50726168       0.49157426       0.99854273 </v>
   <v>       0.49416937       0.49918583       0.50137235 </v>
   <v>       0.25977799       0.24557323       0.50326900 </v>
   <v>       0.74677839       0.24829742       0.00160266 </v>
   <v>       0.74985389       0.24481036       0.49778706 </v>
   <v>       0.74499684       0.75312714       0.50239001 </v>
   <v>       0.24764216       0.25704845       0.25225621 </v>
   <v>       0.24859842       0.75110075       0.74943004 </v>
   <v>       0.73801824       0.73411803       0.25336953 </v>
   <v>       0.75224092       0.74747102       0.74736885 </v>
   <v>       0.99640582       0.02359603       0.24189188 </v>
   <v>       0.00013174       0.50033263       0.25394547 </v>
   <v>       0.50243251       0.99892816       0.25002254 </v>
   <v>       0.50710117       0.51317603       0.75073276 </v>
   <v>       0.11412977       0.14016159       0.24598662 </v>
   <v>       0.11178083       0.13922594       0.75516277 </v>
   <v>       0.10091448       0.65436564       0.25834413 </v>
   <v>       0.11028068       0.63870562       0.74558657 </v>
   <v>       0.61967271       0.13019943       0.75211259 </v>
   <v>       0.60580627       0.63274764       0.25112805 </v>
   <v>       0.61742617       0.63704671       0.75190250 </v>
   <v>       0.38740502       0.36162300       0.24792981 </v>
   <v>       0.38148431       0.87151597       0.75227943 </v>
   <v>       0.89327864       0.35284853       0.24698253 </v>
   <v>       0.89232071       0.36279954       0.75370042 </v>
   <v>       0.88596625       0.86390749       0.75195651 </v>
   <v>       0.37328479       0.10606322       0.25200489 </v>
   <v>       0.37174264       0.13344436       0.74355159 </v>
   <v>       0.35903166       0.61225141       0.24309315 </v>
   <v>       0.35983083       0.61413669       0.75666215 </v>
   <v>       0.84266954       0.09539673       0.24540108 </v>
   <v>       0.86825555       0.11315513       0.75395438 </v>
   <v>       0.86259144       0.61117103       0.25834146 </v>
   <v>       0.86858814       0.60720463       0.73414784 </v>
   <v>       0.13852382       0.39785037       0.23803649 </v>
   <v>       0.14980615       0.39532860       0.76361346 </v>
   <v>       0.13558357       0.88895608       0.74894918 </v>
   <v>       0.63595699       0.37894405       0.25095348 </v>
   <v>       0.62777891       0.37663324       0.75071035 </v>
   <v>       0.62847877       0.88650378       0.24472839 </v>
   <v>       0.63201288       0.88474756       0.76162029 </v>
   <v>       0.36143527       0.38762340       0.00253576 </v>
   <v>       0.34963821       0.39180637       0.49880947 </v>
   <v>       0.34852826       0.89719920       0.00286848 </v>
   <v>       0.36612119       0.88922018       0.49843259 </v>
   <v>       0.86356580       0.39497566       0.00193636 </v>
   <v>       0.88212421       0.37190054       0.49669676 </v>
   <v>       0.88327362       0.86188089       0.00107260 </v>
   <v>       0.87270889       0.87701152       0.50187771 </v>
   <v>       0.14106660       0.11125463       0.99889998 </v>
   <v>       0.12479355       0.13328251       0.50038092 </v>
   <v>       0.11364024       0.64771154       0.00984946 </v>
   <v>       0.13245797       0.61974526       0.49169660 </v>
   <v>       0.63695692       0.10209103       0.99680511 </v>
   <v>       0.63079608       0.11461438       0.50522366 </v>
   <v>       0.65217031       0.60857064       0.00455138 </v>
   <v>       0.62778925       0.61865428       0.49974254 </v>
   <v>       0.11667541       0.37060447       0.99600632 </v>
   <v>       0.12207293       0.87229299       0.49669788 </v>
   <v>       0.61264922       0.35646677       0.99982816 </v>
   <v>       0.61819220       0.36669779       0.49916878 </v>
   <v>       0.60953373       0.85773777       0.99681124 </v>
   <v>       0.61334165       0.86852651       0.49720988 </v>
   <v>       0.39212272       0.14047963       0.00473459 </v>
   <v>       0.38582537       0.13437790       0.50119879 </v>
   <v>       0.38235897       0.64171949       0.00653291 </v>
   <v>       0.37793878       0.64092925       0.49089268 </v>
   <v>       0.88731509       0.13658194       0.01311112 </v>
   <v>       0.88107391       0.12453455       0.48802072 </v>
   <v>       0.87713403       0.62363399       0.50326738 </v>
   <v>       0.01772490       0.96436892       0.12911659 </v>
   <v>       0.00105414       0.00256953       0.62808031 </v>
   <v>       0.98521107       0.51472013       0.12009078 </v>
   <v>       0.02606539       0.47578851       0.61906689 </v>
   <v>       0.50049464       0.99738743       0.12985354 </v>
   <v>       0.50206458       0.99374990       0.62579324 </v>
   <v>       0.50211546       0.49981944       0.12522715 </v>
   <v>       0.48654777       0.49011325       0.63003978 </v>
   <v>       0.00683590       0.95549610       0.34649655 </v>
   <v>       0.00643215       0.99260026       0.88046312 </v>
   <v>       0.01856511       0.47829874       0.38014561 </v>
   <v>       0.98831500       0.52350755       0.87990502 </v>
   <v>       0.50954937       0.00524140       0.36837784 </v>
   <v>       0.48869002       0.00349961       0.87746763 </v>
   <v>       0.49585523       0.49727233       0.37240236 </v>
   <v>       0.49087005       0.49129734       0.87391041 </v>
   <v>       0.23696757       0.26153926       0.37676733 </v>
   <v>       0.27010039       0.25560271       0.87261814 </v>
   <v>       0.27288735       0.80259764       0.34888379 </v>
   <v>       0.23734184       0.76137618       0.88401213 </v>
   <v>       0.73265901       0.23400105       0.36757735 </v>
   <v>       0.75602791       0.24573426       0.87618829 </v>
   <v>       0.75620556       0.76166576       0.37126826 </v>
   <v>       0.76879979       0.73009440       0.87983647 </v>
   <v>       0.24954187       0.25192808       0.12156495 </v>
   <v>       0.24356958       0.27021165       0.62859571 </v>
   <v>       0.24003517       0.79211668       0.13510711 </v>
   <v>       0.25272928       0.75244485       0.62230367 </v>
   <v>       0.72609170       0.23454406       0.13131734 </v>
   <v>       0.75628441       0.24742097       0.62642285 </v>
   <v>       0.76269235       0.74816750       0.12639000 </v>
   <v>       0.74335926       0.75882643       0.62583953 </v>
  </varray>
 </structure>
 <calculation>
  <scstep>
   <time name="dav">  581.96  581.96</time>
   <time name="total">  589.18  589.28</time>
   <energy>
    <i name="alphaZ">   5613.14060891 </i>
    <i name="ewald"> -61820.54161351 </i>
    <i name="hartreedc"> -17776.23701791 </i>
    <i name="XCdc">   3182.72707482 </i>
    <i name="pawpsdc"> 114354.03545777 </i>
    <i name="pawaedc">-113555.51075139 </i>
    <i name="eentropy">     -0.00000000 </i>
    <i name="bandstr">  -7100.97996048 </i>
    <i name="atom">  76050.17612637 </i>
    <i name="e_fr_energy">  -1053.19007543 </i>
    <i name="e_wo_entrp">  -1053.19007543 </i>
    <i name="e_0_energy">  -1053.19007543 </i>
   </energy>
  </scstep>
  <scstep>
   <time name="diag">   64.49   64.51</time>
   <time name="diis">   61.13   61.17</time>
   <time name="orth">   33.32   33.33</time>
   <time name="total">  166.12  166.22</time>
   <energy>
    <i name="e_fr_energy">  -1053.19007402 </i>
    <i name="e_wo_entrp">  -1053.19007402 </i>
    <i name="e_0_energy">  -1053.19007402 </i>
   </energy>
  </scstep>
  <scstep>
   <time name="diag">   64.35   64.36</time>
   <time name="diis">   59.18   59.17</time>
   <time name="orth">   33.36   33.36</time>
   <time name="total">  164.06  164.15</time>
   <energy>
    <i name="e_fr_energy">  -1053.19007433 </i>
    <i name="e_wo_entrp">  -1053.19007433 </i>
    <i name="e_0_energy">  -1053.19007433 </i>
   </energy>
  </scstep>
  <scstep>
   <time name="diag">   64.36   64.36</time>
   <time name="diis">   48.12   48.13</time>
   <time name="orth">   33.37   33.37</time>
   <time name="total">  153.02  153.07</time>
   <energy>
    <i name="e_fr_energy">  -1053.19007441 </i>
    <i name="e_wo_entrp">  -1053.19007441 </i>
    <i name="e_0_energy">  -1053.19007441 </i>
   </energy>
  </scstep>
  <scstep>
   <time name="diag">   64.47   64.49</time>
   <time name="diis">   48.11   48.11</time>
   <time name="orth">   33.30   33.30</time>
   <time name="total">  153.07  153.15</time>
   <energy>
    <i name="e_fr_energy">  -1053.19007452 </i>
    <i name="e_wo_entrp">  -1053.19007452 </i>
    <i name="e_0_energy">  -1053.19007452 </i>
   </energy>
  </scstep>
  <scstep>
   <time name="diag">   64.46   64.48</time>
   <time name="diis">   44.99   44.99</time>
   <time name="orth">   33.37   33.37</time>
   <time name="total">  149.99  150.07</time>
   <energy>
    <i name="e_fr_energy">  -1053.19007461 </i>
    <i name="e_wo_entrp">  -1053.19007461 </i>
    <i name="e_0_energy">  -1053.19007461 </i>
   </energy>
  </scstep>
  <scstep>
   <time name="diag">   64.41   64.46</time>
   <time name="diis">   44.17   44.17</time>
   <time name="orth">   33.35   33.35</time>
   <time name="total">  149.05  149.21</time>
   <energy>
    <i name="e_fr_energy">  -1053.19007468 </i>
    <i name="e_wo_entrp">  -1053.19007468 </i>
    <i name="e_0_energy">  -1053.19007468 </i>
   </energy>
  </scstep>
  <scstep>
   <time name="diag">   64.41   64.41</time>
   <time name="diis">   42.90   42.91</time>
   <time name="orth">   33.36   33.36</time>
   <time name="total">  141.71  141.81</time>
   <energy>
    <i name="alphaZ">   5613.14060891 </i>
    <i name="ewald"> -61820.54161351 </i>
    <i name="hartreedc"> -17776.26162915 </i>
    <i name="XCdc">   3182.72638985 </i>
    <i name="pawpsdc"> 114352.96320826 </i>
    <i name="pawaedc">-113554.44558593 </i>
    <i name="eentropy">     -0.00000000 </i>
    <i name="bandstr">  -7100.94757953 </i>
    <i name="atom">  76050.17612637 </i>
    <i name="e_fr_energy">  -1053.19007473 </i>
    <i name="e_wo_entrp">  -1053.19007473 </i>
    <i name="e_0_energy">  -1053.19007473 </i>
   </energy>
  </scstep>
  <structure>
   <crystal>
    <varray name="basis" >
     <v>      11.24387678      -0.00169702       0.00556198 </v>
     <v>      -0.00146102      11.26418936      -0.00009565 </v>
     <v>       0.00800669      -0.00029911      15.84173911 </v>
    </varray>
    <i name="volume">   2006.40573204 </i>
    <varray name="rec_basis" >
     <v>       0.08893732       0.00001154      -0.00004495 </v>
     <v>       0.00001340       0.08877692       0.00000167 </v>
     <v>      -0.00003123       0.00000053       0.06312440 </v>
    </varray>
   </crystal>
   <varray name="positions" >
    <v>       0.01397013       0.26095631       0.12389766 </v>
    <v>       0.98712185       0.23960498       0.62195688 </v>
    <v>       0.99190534       0.74163154       0.12873452 </v>
    <v>       0.99315007       0.75804940       0.62487286 </v>
    <v>       0.49725191       0.25703821       0.12221795 </v>
    <v>       0.51207266       0.24891881       0.61997523 </v>
    <v>       0.51578844       0.73944504       0.12438978 </v>
    <v>       0.50539012       0.74918317       0.62289738 </v>
    <v>       0.00321702       0.24777159       0.37911556 </v>
    <v>       0.98888053       0.24299878       0.87603416 </v>
    <v>       0.98815314       0.74843611       0.38745737 </v>
    <v>       0.00127056       0.75267855       0.86621574 </v>
    <v>       0.49599633       0.25490482       0.38246503 </v>
    <v>       0.51090949       0.24917526       0.87628230 </v>
    <v>       0.50823400       0.74737942       0.38315724 </v>
    <v>       0.49831805       0.74929423       0.86377967 </v>
    <v>       0.25555410       0.02215529       0.12481979 </v>
    <v>       0.24969626       0.99674688       0.62308370 </v>
    <v>       0.26173121       0.48388847       0.12385418 </v>
    <v>       0.25536408       0.51198322       0.62569120 </v>
    <v>       0.74538750       0.99944579       0.11864520 </v>
    <v>       0.75103474       0.99476958       0.62312373 </v>
    <v>       0.74722194       0.49374298       0.12856294 </v>
    <v>       0.73406285       0.49986982       0.62138463 </v>
    <v>       0.24535343       0.01733129       0.38377669 </v>
    <v>       0.25256296       0.00072706       0.86829056 </v>
    <v>       0.25482567       0.49030812       0.37519720 </v>
    <v>       0.25687949       0.50677045       0.87730524 </v>
    <v>       0.75311707       0.99426180       0.38402528 </v>
    <v>       0.75048911       0.00351118       0.86936199 </v>
    <v>       0.73680058       0.49932081       0.38378875 </v>
    <v>       0.74546864       0.49462857       0.86959237 </v>
    <v>       0.00469735       0.49201278       0.99963646 </v>
    <v>       0.99085175       0.50646824       0.49989508 </v>
    <v>       0.49760709       0.00421171       0.99924047 </v>
    <v>       0.50345155       0.99993872       0.49871884 </v>
    <v>       0.25759123       0.24902521       0.99733661 </v>
    <v>       0.26001154       0.74941306       0.00269918 </v>
    <v>       0.25135640       0.75578900       0.50319737 </v>
    <v>       0.74157278       0.75600598       0.99731777 </v>
    <v>       0.23628043       0.24506679       0.74888722 </v>
    <v>       0.24525032       0.72965875       0.24703098 </v>
    <v>       0.76247465       0.25362985       0.24982355 </v>
    <v>       0.75041063       0.24988903       0.74945998 </v>
    <v>       0.99722716       0.99348036       0.75136605 </v>
    <v>       0.00236682       0.50254047       0.74625532 </v>
    <v>       0.50173997       0.99833527       0.74853000 </v>
    <v>       0.50206800       0.49014615       0.25076676 </v>
    <v>       0.99287381       0.00919687       0.00276471 </v>
    <v>       0.99799433       0.99886393       0.50431012 </v>
    <v>       0.50726168       0.49157426       0.99854273 </v>
    <v>       0.49416937       0.49918583       0.50137235 </v>
    <v>       0.25977799       0.24557323       0.50326900 </v>
    <v>       0.74677839       0.24829742       0.00160266 </v>
    <v>       0.74985389       0.24481036       0.49778706 </v>
    <v>       0.74499684       0.75312714       0.50239001 </v>
    <v>       0.24764216       0.25704845       0.25225621 </v>
    <v>       0.24859842       0.75110075       0.74943004 </v>
    <v>       0.73801824       0.73411803       0.25336953 </v>
    <v>       0.75224092       0.74747102       0.74736885 </v>
    <v>       0.99640582       0.02359603       0.24189188 </v>
    <v>       0.00013174       0.50033263       0.25394547 </v>
    <v>       0.50243251       0.99892816       0.25002254 </v>
    <v>       0.50710117       0.51317603       0.75073276 </v>
    <v>       0.11412977       0.14016159       0.24598662 </v>
    <v>       0.11178083       0.13922594       0.75516277 </v>
    <v>       0.10091448       0.65436564       0.25834413 </v>
    <v>       0.11028068       0.63870562       0.74558657 </v>
    <v>       0.61967271       0.13019943       0.75211259 </v>
    <v>       0.60580627       0.63274764       0.25112805 </v>
    <v>       0.61742617       0.63704671       0.75190250 </v>
    <v>       0.38740502       0.36162300       0.24792981 </v>
    <v>       0.38148431       0.87151597       0.75227943 </v>
    <v>       0.89327864       0.35284853       0.24698253 </v>
    <v>       0.89232071       0.36279954       0.75370042 </v>
    <v>       0.88596625       0.86390749       0.75195651 </v>
    <v>       0.37328479       0.10606322       0.25200489 </v>
    <v>       0.37174264       0.13344436       0.74355159 </v>
    <v>       0.35903166       0.61225141       0.24309315 </v>
    <v>       0.35983083       0.61413669       0.75666215 </v>
    <v>       0.84266954       0.09539673       0.24540108 </v>
    <v>       0.86825555       0.11315513       0.75395438 </v>
    <v>       0.86259144       0.61117103       0.25834146 </v>
    <v>       0.86858814       0.60720463       0.73414784 </v>
    <v>       0.13852382       0.39785037       0.23803649 </v>
    <v>       0.14980615       0.39532860       0.76361346 </v>
    <v>       0.13558357       0.88895608       0.74894918 </v>
    <v>       0.63595699       0.37894405       0.25095348 </v>
    <v>       0.62777891       0.37663324       0.75071035 </v>
    <v>       0.62847877       0.88650378       0.24472839 </v>
    <v>       0.63201288       0.88474756       0.76162029 </v>
    <v>       0.36143527       0.38762340       0.00253576 </v>
    <v>       0.34963821       0.39180637       0.49880947 </v>
    <v>       0.34852826       0.89719920       0.00286848 </v>
    <v>       0.36612119       0.88922018       0.49843259 </v>
    <v>       0.86356580       0.39497566       0.00193636 </v>
    <v>       0.88212421       0.37190054       0.49669676 </v>
    <v>       0.88327362       0.86188089       0.00107260 </v>
    <v>       0.87270889       0.87701152       0.50187771 </v>
    <v>       0.14106660       0.11125463       0.99889998 </v>
    <v>       0.12479355       0.13328251       0.50038092 </v>
    <v>       0.11364024       0.64771154       0.00984946 </v>
    <v>       0.13245797       0.61974526       0.49169660 </v>
    <v>       0.63695692       0.10209103       0.99680511 </v>
    <v>       0.63079608       0.11461438       0.50522366 </v>
    <v>       0.65217031       0.60857064       0.00455138 </v>
    <v>       0.62778925       0.61865428       0.49974254 </v>
    <v>       0.11667541       0.37060447       0.99600632 </v>
    <v>       0.12207293       0.87229299       0.49669788 </v>
    <v>       0.61264922       0.35646677       0.99982816 </v>
    <v>       0.61819220       0.36669779       0.49916878 </v>
    <v>       0.60953373       0.85773777       0.99681124 </v>
    <v>       0.61334165       0.86852651       0.49720988 </v>
    <v>       0.39212272       0.14047963       0.00473459 </v>
    <v>       0.38582537       0.13437790       0.50119879 </v>
    <v>       0.38235897       0.64171949       0.00653291 </v>
    <v>       0.37793878       0.64092925       0.49089268 </v>
    <v>       0.88731509       0.13658194       0.01311112 </v>
    <v>       0.88107391       0.12453455       0.48802072 </v>
    <v>       0.87713403       0.62363399       0.50326738 </v>
    <v>       0.01772490       0.96436892       0.12911659 </v>
    <v>       0.00105414       0.00256953       0.62808031 </v>
    <v>       0.98521107       0.51472013       0.12009078 </v>
    <v>       0.02606539       0.47578851       0.61906689 </v>
    <v>       0.50049464       0.99738743       0.12985354 </v>
    <v>       0.50206458       0.99374990       0.62579324 </v>
    <v>       0.50211546       0.49981944       0.12522715 </v>
    <v>       0.48654777       0.49011325       0.63003978 </v>
    <v>       0.00683590       0.95549610       0.34649655 </v>
    <v>       0.00643215       0.99260026       0.88046312 </v>
    <v>       0.01856511       0.47829874       0.38014561 </v>
    <v>       0.98831500       0.52350755       0.87990502 </v>
    <v>       0.50954937       0.00524140       0.36837784 </v>
    <v>       0.48869002       0.00349961       0.87746763 </v>
    <v>       0.49585523       0.49727233       0.37240236 </v>
    <v>       0.49087005       0.49129734       0.87391041 </v>
    <v>       0.23696757       0.26153926       0.37676733 </v>
    <v>       0.27010039       0.25560271       0.87261814 </v>
    <v>       0.27288735       0.80259764       0.34888379 </v>
    <v>       0.23734184       0.76137618       0.88401213 </v>
    <v>       0.73265901       0.23400105       0.36757735 </v>
    <v>       0.75602791       0.24573426       0.87618829 </v>
    <v>       0.75620556       0.76166576       0.37126826 </v>
    <v>       0.76879979       0.73009440       0.87983647 </v>
    <v>       0.24954187       0.25192808       0.12156495 </v>
    <v>       0.24356958       0.27021165       0.62859571 </v>
    <v>       0.24003517       0.79211668       0.13510711 </v>
    <v>       0.25272928       0.75244485       0.62230367 </v>
    <v>       0.72609170       0.23454406       0.13131734 </v>
    <v>       0.75628441       0.24742097       0.62642285 </v>
    <v>       0.76269235       0.74816750       0.12639000 </v>
    <v>       0.74335926       0.75882643       0.62583953 </v>
   </varray>
  </structure>
  <varray name="forces" >
   <v>      -0.01602348      -0.00213822       0.00488293 </v>
   <v>       0.00615613       0.00721184       0.00893074 </v>
   <v>      -0.00233569      -0.00136566       0.00881512 </v>
   <v>      -0.00348089       0.00039935       0.00093101 </v>
   <v>       0.00165397      -0.00021000      -0.00164144 </v>
   <v>       0.00822609       0.00699395       0.00543634 </v>
   <v>      -0.00705781       0.00370926      -0.00298009 </v>
   <v>       0.00168030      -0.00066769      -0.00354806 </v>
   <v>      -0.00922069      -0.00361320      -0.00770736 </v>
   <v>      -0.00067067       0.00442991       0.00245987 </v>
   <v>       0.00530816      -0.00133723      -0.00867289 </v>
   <v>      -0.00113795      -0.00147055       0.00740310 </v>
   <v>      -0.00271078      -0.00183852       0.00444246 </v>
   <v>       0.00844677       0.00380357       0.00531983 </v>
   <v>       0.01028918       0.00703701      -0.01048873 </v>
   <v>      -0.00290352      -0.00641758       0.00397959 </v>
   <v>      -0.00172489      -0.00120311      -0.00139854 </v>
   <v>       0.00000418      -0.00401628       0.00269018 </v>
   <v>      -0.00384422       0.00578695      -0.00020562 </v>
   <v>      -0.00191815      -0.00037830      -0.00165124 </v>
   <v>      -0.01183523      -0.00139243       0.00304255 </v>
   <v>       0.00485210      -0.00359027      -0.00898013 </v>
   <v>      -0.00458474      -0.00814833       0.00327021 </v>
   <v>       0.00623747      -0.00020664       0.00846971 </v>
   <v>       0.00690847      -0.00775508      -0.00390005 </v>
   <v>      -0.00264400      -0.00030582      -0.00197222 </v>
   <v>      -0.00006690       0.00621645      -0.00312560 </v>
   <v>       0.00076679       0.00312572      -0.00294575 </v>
   <v>      -0.00249924      -0.00177466      -0.00149620 </v>
   <v>       0.00134493      -0.00579914       0.00506138 </v>
   <v>       0.00338522       0.00586088      -0.00340374 </v>
   <v>      -0.00143415      -0.00248828      -0.00588028 </v>
   <v>       0.01002886      -0.00667751      -0.00386171 </v>
   <v>      -0.00158595       0.01120389       0.00267110 </v>
   <v>      -0.00589092      -0.01278386       0.00493829 </v>
   <v>       0.00411725      -0.01689383      -0.01004380 </v>
   <v>       0.01272349       0.00289014      -0.00124885 </v>
   <v>       0.01043350       0.03114086      -0.01170448 </v>
   <v>       0.00224151      -0.00387887       0.00086782 </v>
   <v>      -0.00780026       0.02499752      -0.00868893 </v>
   <v>      -0.02188510      -0.01347795       0.00465181 </v>
   <v>      -0.00379601       0.02800832       0.00331221 </v>
   <v>       0.00943279      -0.00220328      -0.00225165 </v>
   <v>      -0.02028076       0.02196795       0.00285169 </v>
   <v>      -0.00108378      -0.00417242       0.00854575 </v>
   <v>      -0.00924429      -0.00446041       0.00512387 </v>
   <v>      -0.01137452      -0.00711336       0.02995521 </v>
   <v>       0.00876668       0.00860976      -0.00248139 </v>
   <v>      -0.01420399       0.00416141       0.00038749 </v>
   <v>      -0.01039598       0.00249955      -0.01173427 </v>
   <v>       0.00030802      -0.01307753      -0.00505937 </v>
   <v>       0.01437944       0.00593398       0.00482692 </v>
   <v>       0.01413778      -0.00178455       0.00185119 </v>
   <v>      -0.00140955      -0.00837065       0.00446678 </v>
   <v>      -0.00218097       0.00116769      -0.00134167 </v>
   <v>      -0.00563572      -0.00309596       0.00298307 </v>
   <v>       0.00278654       0.00743038      -0.00546312 </v>
   <v>       0.00393990       0.00126886      -0.00080965 </v>
   <v>      -0.02256836       0.01072740       0.00772504 </v>
   <v>      -0.00025318      -0.00612530       0.01576109 </v>
   <v>      -0.01412093       0.00058650      -0.01085587 </v>
   <v>      -0.00109997      -0.00491689       0.00073664 </v>
   <v>      -0.01067929       0.00528089       0.00320198 </v>
   <v>       0.00819236       0.00662871       0.00473422 </v>
   <v>       0.00455216       0.00195688      -0.00510150 </v>
   <v>       0.00009039      -0.00163061       0.01128909 </v>
   <v>       0.00047860      -0.00325202      -0.00051800 </v>
   <v>       0.00235087       0.00251466       0.00037171 </v>
   <v>       0.00928916       0.00034267      -0.00459715 </v>
   <v>      -0.00583993      -0.01305388       0.00085845 </v>
   <v>      -0.00850788      -0.00280343      -0.00337840 </v>
   <v>       0.00606615       0.00413369       0.00732214 </v>
   <v>      -0.00011530      -0.00143540      -0.00833489 </v>
   <v>      -0.00826026      -0.00242739       0.00276776 </v>
   <v>      -0.00297553      -0.00273232      -0.00049803 </v>
   <v>      -0.00514954       0.00156614       0.00594739 </v>
   <v>      -0.00209319      -0.00297987      -0.01002471 </v>
   <v>      -0.01448975       0.00603991      -0.01690477 </v>
   <v>       0.01157647      -0.00787677      -0.00081352 </v>
   <v>       0.00623179      -0.01037049      -0.00145650 </v>
   <v>       0.00380650      -0.00728585       0.00723997 </v>
   <v>      -0.00303406      -0.00457816      -0.00369417 </v>
   <v>       0.00862312       0.00658237      -0.01246178 </v>
   <v>       0.00545903      -0.00366611      -0.00047164 </v>
   <v>       0.00409435      -0.00614513       0.00486430 </v>
   <v>       0.00053984      -0.00548100       0.00466747 </v>
   <v>      -0.00216740       0.00497855       0.00241097 </v>
   <v>       0.00383105       0.00021216      -0.00177599 </v>
   <v>       0.00181968      -0.01006887       0.00360415 </v>
   <v>      -0.00089127       0.00530433       0.00895336 </v>
   <v>      -0.00820980      -0.00342531       0.00289179 </v>
   <v>       0.00468880       0.00030493      -0.00298893 </v>
   <v>       0.01042357      -0.01374276       0.00174936 </v>
   <v>      -0.00062191      -0.00945377      -0.01104745 </v>
   <v>       0.01750779       0.00018264      -0.00331232 </v>
   <v>       0.00539498       0.00411091       0.00218133 </v>
   <v>       0.00142550      -0.01368510      -0.00111027 </v>
   <v>      -0.00513178      -0.00822962       0.00281256 </v>
   <v>       0.00256042       0.00403582       0.00054108 </v>
   <v>      -0.00535912      -0.00651683      -0.00794404 </v>
   <v>      -0.01055810       0.00959267       0.00134467 </v>
   <v>      -0.01186558      -0.00480945      -0.00801705 </v>
   <v>      -0.00056571       0.00015849      -0.00110367 </v>
   <v>      -0.00435359      -0.00106679      -0.00918569 </v>
   <v>      -0.00397363       0.00683259      -0.00081833 </v>
   <v>      -0.00263764      -0.00673619      -0.00036140 </v>
   <v>       0.00174010      -0.00086175      -0.00470296 </v>
   <v>      -0.00020541       0.00194912      -0.00347734 </v>
   <v>       0.00825111       0.00247318       0.00454487 </v>
   <v>       0.00107452       0.00194840      -0.00086130 </v>
   <v>       0.00815157       0.00477506       0.00588448 </v>
   <v>      -0.00555198       0.00082564      -0.01072083 </v>
   <v>       0.00032402       0.01684590       0.00122908 </v>
   <v>       0.00074602       0.00313234      -0.00246940 </v>
   <v>      -0.00702160      -0.00964862       0.01043987 </v>
   <v>       0.01372617      -0.01755304       0.00835597 </v>
   <v>      -0.00534920      -0.00518737       0.00332014 </v>
   <v>       0.00194601       0.00668293       0.00090236 </v>
   <v>      -0.00078586       0.00061698       0.00776159 </v>
   <v>       0.01340418      -0.00197861       0.00683565 </v>
   <v>      -0.00161964       0.01327186      -0.01339586 </v>
   <v>      -0.00731132       0.00382037       0.00143066 </v>
   <v>       0.00871552      -0.00543421      -0.01038723 </v>
   <v>       0.00220322       0.00268874      -0.00313551 </v>
   <v>      -0.00024865      -0.00772737       0.00349281 </v>
   <v>       0.00868320      -0.00487765      -0.01612640 </v>
   <v>       0.00210479      -0.00477261       0.00771474 </v>
   <v>      -0.00041120      -0.00266879       0.00073134 </v>
   <v>       0.00460257       0.00702768       0.00086204 </v>
   <v>       0.00320905       0.00036392      -0.00126047 </v>
   <v>       0.00484138       0.00723290       0.01670718 </v>
   <v>       0.00528251      -0.00467085       0.01192749 </v>
   <v>      -0.01067780       0.00894724      -0.01557846 </v>
   <v>      -0.00056115       0.00537043       0.00629719 </v>
   <v>       0.00561668      -0.01140896       0.00009373 </v>
   <v>      -0.00230580       0.01596779      -0.00527582 </v>
   <v>       0.00241033      -0.00636075      -0.00418999 </v>
   <v>       0.01247792       0.00011273      -0.00476958 </v>
   <v>       0.00530574      -0.01004644      -0.00906422 </v>
   <v>       0.00140771      -0.00656044       0.00066126 </v>
   <v>      -0.00202486       0.00683228       0.00387455 </v>
   <v>       0.00381288       0.00304738       0.00734593 </v>
   <v>      -0.00036211      -0.00049947       0.00094099 </v>
   <v>       0.00521230      -0.00080941       0.00516115 </v>
   <v>       0.00101285       0.00901421       0.00821214 </v>
   <v>      -0.00966161       0.00952822      -0.00331945 </v>
   <v>       0.00083612      -0.01438281      -0.00374581 </v>
   <v>      -0.00513727      -0.00351497      -0.00358077 </v>
   <v>       0.00631420       0.01164528       0.01164746 </v>
   <v>      -0.00504136       0.00330034       0.00039205 </v>
   <v>       0.00238404      -0.00048197       0.00194507 </v>
   <v>      -0.00069448       0.00269949      -0.01773223 </v>
  </varray>
  <varray name="stress" >
   <v>      -0.06011758      -0.04244813      -0.03400416 </v>
   <v>      -0.04244856      -0.12743972       0.01862792 </v>
   <v>      -0.03400402       0.01862796      -0.07787952 </v>
  </varray>
  <energy>
   <i name="e_fr_energy">  -1053.19007473 </i>
   <i name="e_wo_entrp">  -1053.19007473 </i>
   <i name="e_0_energy">     -0.00000000 </i>
  </energy>
  <time name="totalsc"> 1927.92 1930.30</time>
 </calculation>
 <calculation>
  <scstep>
   <time name="dav">  569.28  569.29</time>
   <time name="total">  576.40  576.47</time>
   <energy>
    <i name="alphaZ">   5613.73284703 </i>
    <i name="ewald"> -61822.95727391 </i>
    <i name="hartreedc"> -17776.61537551 </i>
    <i name="XCdc">   3182.86782570 </i>
    <i name="pawpsdc"> 114352.96084246 </i>
    <i name="pawaedc">-113554.44315579 </i>
    <i name="eentropy">     -0.00000000 </i>
    <i name="bandstr">  -7098.91167967 </i>
    <i name="atom">  76050.17612637 </i>
    <i name="e_fr_energy">  -1053.18984333 </i>
    <i name="e_wo_entrp">  -1053.18984333 </i>
    <i name="e_0_energy">  -1053.18984333 </i>
   </energy>
  </scstep>
  <scstep>
   <time name="diag">   64.32   64.32</time>
   <time name="diis">  103.19  103.19</time>
   <time name="orth">   33.26   33.26</time>
   <time name="total">  207.98  208.02</time>
   <energy>
    <i name="e_fr_energy">  -1053.19055652 </i>
    <i name="e_wo_entrp">  -1053.19055652 </i>
    <i name="e_0_energy">  -1053.19055652 </i>
   </energy>
  </scstep>
  <scstep>
   <time name="diag">   64.37   64.37</time>
   <time name="diis">   78.76   78.78</time>
   <time name="orth">   33.29   33.28</time>
   <time name="total">  183.63  183.70</time>
   <energy>
    <i name="e_fr_energy">  -1053.19058989 </i>
    <i name="e_wo_entrp">  -1053.19058989 </i>
    <i name="e_0_energy">  -1053.19058989 </i>
   </energy>
  </scstep>
  <scstep>
   <time name="diag">   64.38   64.43</time>
   <time name="diis">   64.52   64.56</time>
   <time name="orth">   33.27   33.26</time>
   <time name="total">  169.37  169.50</time>
   <energy>
    <i name="e_fr_energy">  -1053.19055518 </i>
    <i name="e_wo_entrp">  -1053.19055518 </i>
    <i name="e_0_energy">  -1053.19055518 </i>
   </energy>
  </scstep>
  <scstep>
   <time name="diag">   64.46   64.48</time>
   <time name="diis">   63.03   63.04</time>
   <time name="orth">   33.26   33.26</time>
   <time name="total">  167.97  168.08</time>
   <energy>
    <i name="e_fr_energy">  -1053.19055104 </i>
    <i name="e_wo_entrp">  -1053.19055104 </i>
    <i name="e_0_energy">  -1053.19055104 </i>
   </energy>
  </scstep>
  <scstep>
   <time name="diag">   64.38   64.39</time>
   <time name="diis">   61.87   61.87</time>
   <time name="orth">   33.27   33.27</time>
   <time name="total">  166.73  166.83</time>
   <energy>
    <i name="e_fr_energy">  -1053.19055318 </i>
    <i name="e_wo_entrp">  -1053.19055318 </i>
    <i name="e_0_energy">  -1053.19055318 </i>
   </energy>
  </scstep>
  <scstep>
   <time name="diag">   64.61   64.62</time>
   <time name="diis">   58.83   58.85</time>
   <time name="orth">   33.35   33.36</time>
   <time name="total">  163.89  163.99</time>
   <energy>
    <i name="e_fr_energy">  -1053.19055472 </i>
    <i name="e_wo_entrp">  -1053.19055472 </i>
    <i name="e_0_energy">  -1053.19055472 </i>
   </energy>
  </scstep>
  <scstep>
   <time name="diag">   64.66   64.67</time>
   <time name="diis">   56.58   56.58</time>
   <time name="orth">   33.32   33.32</time>
   <time name="total">  155.60  155.65</time>
   <energy>
    <i name="alphaZ">   5613.73284703 </i>
    <i name="ewald"> -61822.95727391 </i>
    <i name="hartreedc"> -17775.07778399 </i>
    <i name="XCdc">   3182.76180048 </i>
    <i name="pawpsdc"> 114367.67889429 </i>
    <i name="pawaedc">-113569.18902807 </i>
    <i name="eentropy">     -0.00000000 </i>
    <i name="bandstr">  -7100.31613843 </i>
    <i name="atom">  76050.17612637 </i>
    <i name="e_fr_energy">  -1053.19055623 </i>
    <i name="e_wo_entrp">  -1053.19055623 </i>
    <i name="e_0_energy">  -1053.19055623 </i>
   </energy>
  </scstep>
  <structure>
   <crystal>
    <varray name="basis" >
     <v>      11.24360807      -0.00188660       0.00540983 </v>
     <v>      -0.00165103      11.26361882      -0.00001223 </v>
     <v>       0.00779240      -0.00018194      15.84124863 </v>
    </varray>
    <i name="volume">   2006.19406006 </i>
    <varray name="rec_basis" >
     <v>       0.08893945       0.00001304      -0.00004375 </v>
     <v>       0.00001490       0.08878142       0.00000101 </v>
     <v>      -0.00003037       0.00000006       0.06312635 </v>
    </varray>
   </crystal>
   <varray name="positions" >
    <v>       0.01390137       0.26094715       0.12391255 </v>
    <v>       0.98714825       0.23963587       0.62198406 </v>
    <v>       0.99189530       0.74162569       0.12876137 </v>
    <v>       0.99313513       0.75805110       0.62487570 </v>
    <v>       0.49725901       0.25703731       0.12221295 </v>
    <v>       0.51210795       0.24894877       0.61999177 </v>
    <v>       0.51575817       0.73946092       0.12438072 </v>
    <v>       0.50539734       0.74918031       0.62288657 </v>
    <v>       0.00317748       0.24775611       0.37909210 </v>
    <v>       0.98887765       0.24301776       0.87604165 </v>
    <v>       0.98817593       0.74843039       0.38743095 </v>
    <v>       0.00126566       0.75267225       0.86623829 </v>
    <v>       0.49598469       0.25489695       0.38247856 </v>
    <v>       0.51094572       0.24919156       0.87629849 </v>
    <v>       0.50827818       0.74740957       0.38312529 </v>
    <v>       0.49830558       0.74926674       0.86379180 </v>
    <v>       0.25554670       0.02215014       0.12481553 </v>
    <v>       0.24969627       0.99672967       0.62309190 </v>
    <v>       0.26171472       0.48391325       0.12385356 </v>
    <v>       0.25535585       0.51198159       0.62568618 </v>
    <v>       0.74533671       0.99943982       0.11865449 </v>
    <v>       0.75105558       0.99475421       0.62309637 </v>
    <v>       0.74720225       0.49370808       0.12857290 </v>
    <v>       0.73408960       0.49986894       0.62141042 </v>
    <v>       0.24538308       0.01729808       0.38376480 </v>
    <v>       0.25255162       0.00072575       0.86828456 </v>
    <v>       0.25482540       0.49033475       0.37518768 </v>
    <v>       0.25688279       0.50678383       0.87729627 </v>
    <v>       0.75310635       0.99425420       0.38402073 </v>
    <v>       0.75049487       0.00348634       0.86937740 </v>
    <v>       0.73681511       0.49934592       0.38377838 </v>
    <v>       0.74546249       0.49461791       0.86957447 </v>
    <v>       0.00474038       0.49198419       0.99962468 </v>
    <v>       0.99084495       0.50651622       0.49990322 </v>
    <v>       0.49758180       0.00415696       0.99925552 </v>
    <v>       0.50346923       0.99986637       0.49868825 </v>
    <v>       0.25764583       0.24903760       0.99733278 </v>
    <v>       0.26005635       0.74954644       0.00266352 </v>
    <v>       0.25136602       0.75577239       0.50320001 </v>
    <v>       0.74153935       0.75611303       0.99729133 </v>
    <v>       0.23618652       0.24500905       0.74890142 </v>
    <v>       0.24523404       0.72977870       0.24704107 </v>
    <v>       0.76251513       0.25362042       0.24981668 </v>
    <v>       0.75032362       0.24998311       0.74946870 </v>
    <v>       0.99722249       0.99346249       0.75139208 </v>
    <v>       0.00232715       0.50252136       0.74627094 </v>
    <v>       0.50169110       0.99830480       0.74862124 </v>
    <v>       0.50210562       0.49018303       0.25075919 </v>
    <v>       0.99281287       0.00921468       0.00276591 </v>
    <v>       0.99794975       0.99887463       0.50427440 </v>
    <v>       0.50726301       0.49151825       0.99852732 </v>
    <v>       0.49423106       0.49921125       0.50138703 </v>
    <v>       0.25983865       0.24556559       0.50327461 </v>
    <v>       0.74677233       0.24826157       0.00161626 </v>
    <v>       0.74984453       0.24481535       0.49778297 </v>
    <v>       0.74497265       0.75311387       0.50239910 </v>
    <v>       0.24765413       0.25708027       0.25223957 </v>
    <v>       0.24861533       0.75110619       0.74942757 </v>
    <v>       0.73792140       0.73416396       0.25339308 </v>
    <v>       0.75223980       0.74744479       0.74741684 </v>
    <v>       0.99634525       0.02359853       0.24185885 </v>
    <v>       0.00012701       0.50031157       0.25394772 </v>
    <v>       0.50238668       0.99895077       0.25003230 </v>
    <v>       0.50713632       0.51320442       0.75074716 </v>
    <v>       0.11414931       0.14016997       0.24597107 </v>
    <v>       0.11178120       0.13921896       0.75519715 </v>
    <v>       0.10091653       0.65435171       0.25834255 </v>
    <v>       0.11029077       0.63871639       0.74558769 </v>
    <v>       0.61971258       0.13020090       0.75209858 </v>
    <v>       0.60578121       0.63269173       0.25113067 </v>
    <v>       0.61738967       0.63703470       0.75189222 </v>
    <v>       0.38743103       0.36164071       0.24795210 </v>
    <v>       0.38148383       0.87150982       0.75225405 </v>
    <v>       0.89324319       0.35283813       0.24699097 </v>
    <v>       0.89230794       0.36278784       0.75369891 </v>
    <v>       0.88594415       0.86391419       0.75197463 </v>
    <v>       0.37327583       0.10605046       0.25197436 </v>
    <v>       0.37168051       0.13347022       0.74350013 </v>
    <v>       0.35908133       0.61221768       0.24309066 </v>
    <v>       0.35985757       0.61409228       0.75665771 </v>
    <v>       0.84268585       0.09536553       0.24542312 </v>
    <v>       0.86824254       0.11313552       0.75394314 </v>
    <v>       0.86262847       0.61119922       0.25830350 </v>
    <v>       0.86861156       0.60718894       0.73414640 </v>
    <v>       0.13854138       0.39782406       0.23805130 </v>
    <v>       0.14980845       0.39530512       0.76362767 </v>
    <v>       0.13557427       0.88897740       0.74895653 </v>
    <v>       0.63597343       0.37894496       0.25094807 </v>
    <v>       0.62778670       0.37659011       0.75072132 </v>
    <v>       0.62847493       0.88652649       0.24475565 </v>
    <v>       0.63197764       0.88473289       0.76162911 </v>
    <v>       0.36145540       0.38762471       0.00252665 </v>
    <v>       0.34968292       0.39174752       0.49881478 </v>
    <v>       0.34852561       0.89715871       0.00283484 </v>
    <v>       0.36619632       0.88922097       0.49842248 </v>
    <v>       0.86358894       0.39499327       0.00194300 </v>
    <v>       0.88213032       0.37184193       0.49669338 </v>
    <v>       0.88325159       0.86184564       0.00108117 </v>
    <v>       0.87271988       0.87702881       0.50187935 </v>
    <v>       0.14104362       0.11122671       0.99887579 </v>
    <v>       0.12474825       0.13332359       0.50038503 </v>
    <v>       0.11358934       0.64769094       0.00982507 </v>
    <v>       0.13245555       0.61974594       0.49169324 </v>
    <v>       0.63693826       0.10208645       0.99677714 </v>
    <v>       0.63077904       0.11464364       0.50522118 </v>
    <v>       0.65215899       0.60854179       0.00455028 </v>
    <v>       0.62779673       0.61865059       0.49972821 </v>
    <v>       0.11667454       0.37061282       0.99599573 </v>
    <v>       0.12210833       0.87230359       0.49671171 </v>
    <v>       0.61265384       0.35647511       0.99982553 </v>
    <v>       0.61822716       0.36671825       0.49918669 </v>
    <v>       0.60950994       0.85774130       0.99677860 </v>
    <v>       0.61334304       0.86859866       0.49721363 </v>
    <v>       0.39212593       0.14049305       0.00472707 </v>
    <v>       0.38579521       0.13433657       0.50123059 </v>
    <v>       0.38241783       0.64164432       0.00655834 </v>
    <v>       0.37791582       0.64090703       0.49090280 </v>
    <v>       0.88732344       0.13661056       0.01311386 </v>
    <v>       0.88107052       0.12453719       0.48804436 </v>
    <v>       0.87719153       0.62362552       0.50328817 </v>
    <v>       0.01771799       0.96442576       0.12907580 </v>
    <v>       0.00102277       0.00258589       0.62808468 </v>
    <v>       0.98524848       0.51469686       0.12005914 </v>
    <v>       0.02607485       0.47580002       0.61905734 </v>
    <v>       0.50049356       0.99735434       0.12986418 </v>
    <v>       0.50210187       0.99372902       0.62574412 </v>
    <v>       0.50212448       0.49979900       0.12525064 </v>
    <v>       0.48654600       0.49010182       0.63004200 </v>
    <v>       0.00685565       0.95552620       0.34649917 </v>
    <v>       0.00644592       0.99260182       0.88045928 </v>
    <v>       0.01858585       0.47832972       0.38019648 </v>
    <v>       0.98833764       0.52348755       0.87994134 </v>
    <v>       0.50950359       0.00527971       0.36833041 </v>
    <v>       0.48868760       0.00352262       0.87748681 </v>
    <v>       0.49587933       0.49722347       0.37240264 </v>
    <v>       0.49086018       0.49136572       0.87389435 </v>
    <v>       0.23697791       0.26151202       0.37675457 </v>
    <v>       0.27015393       0.25560320       0.87260359 </v>
    <v>       0.27291013       0.80255462       0.34885618 </v>
    <v>       0.23734787       0.76134808       0.88401414 </v>
    <v>       0.73265032       0.23403031       0.36758916 </v>
    <v>       0.75604426       0.24574731       0.87621065 </v>
    <v>       0.75620400       0.76166362       0.37127113 </v>
    <v>       0.76882214       0.73009093       0.87985218 </v>
    <v>       0.24954620       0.25196669       0.12158995 </v>
    <v>       0.24352814       0.27025245       0.62858561 </v>
    <v>       0.24003875       0.79205509       0.13509570 </v>
    <v>       0.25270725       0.75242979       0.62229277 </v>
    <v>       0.72611877       0.23459394       0.13135280 </v>
    <v>       0.75626278       0.24743510       0.62642406 </v>
    <v>       0.76270258       0.74816544       0.12639592 </v>
    <v>       0.74335632       0.75883799       0.62578553 </v>
   </varray>
  </structure>
  <varray name="forces" >
   <v>      -0.01147702       0.00049284       0.00239920 </v>
   <v>       0.00425879       0.00280571       0.00395205 </v>
   <v>      -0.00466329      -0.00799829       0.00552298 </v>
   <v>      -0.00179366       0.00285378      -0.00033756 </v>
   <v>       0.00052154       0.00415959       0.00560647 </v>
   <v>       0.00461296       0.00065770       0.00119314 </v>
   <v>      -0.00683177      -0.00426395      -0.00090238 </v>
   <v>       0.00062780       0.00233224      -0.00376234 </v>
   <v>      -0.00259959      -0.00081646       0.00095430 </v>
   <v>      -0.00039301       0.00401012       0.00164699 </v>
   <v>       0.00396001      -0.00025438      -0.00377581 </v>
   <v>       0.00192639      -0.00484446       0.00749327 </v>
   <v>      -0.00303316       0.00142308       0.00580409 </v>
   <v>       0.00616533       0.00344682       0.00435416 </v>
   <v>       0.00298798       0.00077170      -0.00566216 </v>
   <v>      -0.00299152      -0.01336113       0.00413753 </v>
   <v>      -0.00673154       0.00434527       0.00100954 </v>
   <v>       0.00094018      -0.00029127      -0.00287742 </v>
   <v>      -0.00269973       0.01056897       0.00058672 </v>
   <v>      -0.00169258      -0.00503857      -0.00206258 </v>
   <v>      -0.00930638      -0.00089559       0.00677366 </v>
   <v>       0.00212587       0.00142862      -0.00488010 </v>
   <v>      -0.00316394      -0.00447439      -0.00022016 </v>
   <v>       0.00752520      -0.00316370       0.00085289 </v>
   <v>       0.00472522       0.00136374       0.00189826 </v>
   <v>      -0.00824417       0.00476585      -0.00355106 </v>
   <v>       0.00321288       0.00295361      -0.00270672 </v>
   <v>      -0.00170251       0.00278068      -0.00113995 </v>
   <v>      -0.00173368       0.00323783       0.00190282 </v>
   <v>       0.00376470       0.00125682      -0.00247990 </v>
   <v>       0.00334914       0.00096427      -0.00389400 </v>
   <v>       0.00129324      -0.00188818       0.00339978 </v>
   <v>      -0.01034256       0.01499397       0.00785811 </v>
   <v>       0.00297704      -0.01854810       0.00520487 </v>
   <v>       0.01225895       0.01389372       0.01055512 </v>
   <v>      -0.00322292       0.01726777       0.00950593 </v>
   <v>      -0.00395845       0.00266886       0.00428478 </v>
   <v>      -0.00083475      -0.03858530       0.00263301 </v>
   <v>       0.00130620      -0.00028784       0.00216621 </v>
   <v>      -0.01120682      -0.02992903       0.00746234 </v>
   <v>       0.01550294       0.01936855      -0.01649754 </v>
   <v>       0.01728661      -0.04028118      -0.01440477 </v>
   <v>      -0.01160867      -0.00218312       0.01648219 </v>
   <v>       0.01536545      -0.02369286      -0.00643969 </v>
   <v>      -0.01328255       0.00819662      -0.00228635 </v>
   <v>       0.00961094      -0.00496993       0.00387276 </v>
   <v>       0.01516140       0.01761220      -0.03480006 </v>
   <v>      -0.00650633      -0.00456234       0.00151721 </v>
   <v>      -0.00211217       0.00155981      -0.00136076 </v>
   <v>       0.00290943       0.01081370      -0.00430154 </v>
   <v>      -0.00032412       0.00529090       0.00154310 </v>
   <v>       0.00143126      -0.00536147       0.00034774 </v>
   <v>       0.00057046      -0.00426381       0.00187608 </v>
   <v>       0.00183713       0.00021667       0.00125898 </v>
   <v>      -0.00069953       0.00155252       0.00015041 </v>
   <v>       0.00117729      -0.00006197      -0.00029616 </v>
   <v>       0.00302713       0.00724386       0.00394593 </v>
   <v>      -0.00193122      -0.00485931      -0.00539780 </v>
   <v>      -0.01189880       0.00557296      -0.00166630 </v>
   <v>      -0.00052336       0.00267934      -0.00384661 </v>
   <v>       0.00319018       0.00367783      -0.00039092 </v>
   <v>       0.00159995      -0.00180937       0.00029693 </v>
   <v>      -0.00833142       0.00443329       0.00111857 </v>
   <v>      -0.01385091      -0.00855595      -0.00144103 </v>
   <v>      -0.00437960      -0.00733727      -0.00775567 </v>
   <v>      -0.01675440      -0.01607735       0.01352914 </v>
   <v>       0.01034598       0.00470439       0.00012104 </v>
   <v>       0.00109931       0.00110127       0.00274184 </v>
   <v>      -0.00179464      -0.00551485       0.00124726 </v>
   <v>       0.00710349       0.00489635       0.00151258 </v>
   <v>       0.00663286       0.00760794      -0.00094098 </v>
   <v>       0.00198605      -0.00220256       0.00286756 </v>
   <v>      -0.00331365      -0.00182441      -0.00256377 </v>
   <v>       0.00739227       0.00545414       0.00344422 </v>
   <v>      -0.00038562       0.00347493       0.00202157 </v>
   <v>      -0.00838885      -0.00738099       0.00766610 </v>
   <v>      -0.00168466      -0.00503975      -0.01001652 </v>
   <v>      -0.00467395      -0.00525974      -0.01163216 </v>
   <v>      -0.01843063       0.02394947       0.00209592 </v>
   <v>       0.00189827      -0.00271104      -0.00167207 </v>
   <v>      -0.00340892      -0.00236835       0.00446893 </v>
   <v>      -0.00175923      -0.00031284       0.00019733 </v>
   <v>       0.00235336       0.00858545      -0.00765059 </v>
   <v>      -0.00494943       0.00474010       0.00129176 </v>
   <v>      -0.00284450      -0.00071609       0.00591492 </v>
   <v>      -0.00789279      -0.00103439       0.00587626 </v>
   <v>       0.00561577      -0.00118971       0.00405550 </v>
   <v>       0.00926292      -0.00265554      -0.00194480 </v>
[...]
       <r>   -17.1893     0.0000    32.0000 </r>
       <r>   -17.0351     0.0000    32.0000 </r>
       <r>   -16.8810     0.0000    32.0000 </r>
       <r>   -16.7268     0.0000    32.0000 </r>
       <r>   -16.5726     0.0000    32.0000 </r>
       <r>   -16.4184     0.0000    32.0000 </r>
       <r>   -16.2642     0.0000    32.0000 </r>
       <r>   -16.1100     0.0000    32.0000 </r>
       <r>   -15.9558     0.0000    32.0000 </r>
       <r>   -15.8016     0.0000    32.0000 </r>
       <r>   -15.6474     0.0000    32.0000 </r>
       <r>   -15.4932     0.0000    32.0000 </r>
       <r>   -15.3391     1.8834    32.2904 </r>
       <r>   -15.1849    11.3915    34.0469 </r>
       <r>   -15.0307    23.1394    37.6147 </r>
       <r>   -14.8765    31.8614    42.5274 </r>
       <r>   -14.7223    45.0714    49.4770 </r>
       <r>   -14.5681    44.7132    56.3713 </r>
       <r>   -14.4139    41.5585    62.7792 </r>
       <r>   -14.2597    45.6935    69.8247 </r>
       <r>   -14.1055    53.5575    78.0827 </r>
       <r>   -13.9513    78.2030    90.1408 </r>
       <r>   -13.7972    83.0808   102.9510 </r>
       <r>   -13.6430    55.7411   111.5457 </r>
       <r>   -13.4888    31.1918   116.3551 </r>
       <r>   -13.3346    16.6767   118.9265 </r>
       <r>   -13.1804     6.8954   119.9897 </r>
       <r>   -13.0262     1.0757   120.1556 </r>
       <r>   -12.8720     5.5322   121.0086 </r>
       <r>   -12.7178    20.8147   124.2180 </r>
       <r>   -12.5636    80.6850   136.6588 </r>
       <r>   -12.4094   133.2567   157.2056 </r>
       <r>   -12.2553   119.2182   175.5878 </r>
       <r>   -12.1011   101.9927   191.3141 </r>
       <r>   -11.9469    89.1368   205.0580 </r>
       <r>   -11.7927    50.1451   212.7899 </r>
       <r>   -11.6385    20.5309   215.9556 </r>
       <r>   -11.4843     0.2882   216.0000 </r>
       <r>   -11.3301     0.0000   216.0000 </r>
       <r>   -11.1759     0.0000   216.0000 </r>
       <r>   -11.0217     0.0000   216.0000 </r>
       <r>   -10.8676     0.0000   216.0000 </r>
       <r>   -10.7134     0.0000   216.0000 </r>
       <r>   -10.5592     0.0000   216.0000 </r>
       <r>   -10.4050     0.0000   216.0000 </r>
       <r>   -10.2508     0.0000   216.0000 </r>
       <r>   -10.0966     0.0000   216.0000 </r>
       <r>    -9.9424     0.0000   216.0000 </r>
       <r>    -9.7882     0.0000   216.0000 </r>
       <r>    -9.6340     0.0000   216.0000 </r>
       <r>    -9.4798     0.0000   216.0000 </r>
       <r>    -9.3257     0.0000   216.0000 </r>
       <r>    -9.1715     0.0000   216.0000 </r>
       <r>    -9.0173     0.0000   216.0000 </r>
       <r>    -8.8631     0.0000   216.0000 </r>
       <r>    -8.7089     0.0000   216.0000 </r>
       <r>    -8.5547     0.0000   216.0000 </r>
       <r>    -8.4005     0.0000   216.0000 </r>
       <r>    -8.2463     0.0000   216.0000 </r>
       <r>    -8.0921     0.0000   216.0000 </r>
       <r>    -7.9379     0.0000   216.0000 </r>
       <r>    -7.7838     0.0000   216.0000 </r>
       <r>    -7.6296     0.0000   216.0000 </r>
       <r>    -7.4754     0.0000   216.0000 </r>
       <r>    -7.3212     0.0000   216.0000 </r>
       <r>    -7.1670     0.0000   216.0000 </r>
       <r>    -7.0128     0.0000   216.0000 </r>
       <r>    -6.8586     0.0000   216.0000 </r>
       <r>    -6.7044     0.0000   216.0000 </r>
       <r>    -6.5502     0.0000   216.0000 </r>
       <r>    -6.3960     0.0000   216.0000 </r>
       <r>    -6.2419     0.0000   216.0000 </r>
       <r>    -6.0877     0.0000   216.0000 </r>
       <r>    -5.9335     0.0000   216.0000 </r>
       <r>    -5.7793     0.0000   216.0000 </r>
       <r>    -5.6251     0.0000   216.0000 </r>
       <r>    -5.4709     0.0000   216.0000 </r>
       <r>    -5.3167     0.0000   216.0000 </r>
       <r>    -5.1625     0.0000   216.0000 </r>
       <r>    -5.0083     0.0000   216.0000 </r>
       <r>    -4.8541     0.0000   216.0000 </r>
       <r>    -4.7000     0.0000   216.0000 </r>
       <r>    -4.5458     0.0000   216.0000 </r>
       <r>    -4.3916     0.0000   216.0000 </r>
       <r>    -4.2374     0.0000   216.0000 </r>
       <r>    -4.0832     0.0000   216.0000 </r>
       <r>    -3.9290     0.0000   216.0000 </r>
       <r>    -3.7748     0.0000   216.0000 </r>
       <r>    -3.6206     0.0000   216.0000 </r>
       <r>    -3.4664     0.0000   216.0000 </r>
       <r>    -3.3123     0.0000   216.0000 </r>
       <r>    -3.1581     0.0000   216.0000 </r>
       <r>    -3.0039     0.0000   216.0000 </r>
       <r>    -2.8497     0.0000   216.0000 </r>
       <r>    -2.6955     0.0000   216.0000 </r>
       <r>    -2.5413     1.0876   216.1677 </r>
       <r>    -2.3871     9.3249   217.6055 </r>
       <r>    -2.2329    18.0801   220.3933 </r>
       <r>    -2.0787    25.9164   224.3893 </r>
       <r>    -1.9245    21.3954   227.6883 </r>
       <r>    -1.7704    26.6027   231.7901 </r>
       <r>    -1.6162    40.1420   237.9796 </r>
       <r>    -1.4620    46.6338   245.1701 </r>
       <r>    -1.3078    53.1227   253.3611 </r>
       <r>    -1.1536    70.4183   264.2188 </r>
       <r>    -0.9994    73.2521   275.5136 </r>
       <r>    -0.8452    75.6860   287.1836 </r>
       <r>    -0.6910    83.4802   300.0554 </r>
       <r>    -0.5368    90.1363   313.9535 </r>
       <r>    -0.3826    92.2027   328.1702 </r>
       <r>    -0.2285    70.5973   339.0556 </r>
       <r>    -0.0743    59.6954   348.2600 </r>
       <r>     0.0799    55.5673   356.8279 </r>
       <r>     0.2341    52.7517   364.9617 </r>
       <r>     0.3883    54.3820   373.3468 </r>
       <r>     0.5425    54.9233   381.8154 </r>
       <r>     0.6967    50.8369   389.6540 </r>
       <r>     0.8509    52.6961   397.7792 </r>
       <r>     1.0051    56.5025   406.4913 </r>
       <r>     1.1593    61.6559   415.9980 </r>
       <r>     1.3134    71.1102   426.9624 </r>
       <r>     1.4676    71.5590   437.9961 </r>
       <r>     1.6218    68.4036   448.5432 </r>
       <r>     1.7760    65.9401   458.7105 </r>
       <r>     1.9302    50.0528   466.4282 </r>
       <r>     2.0844    43.8276   473.1859 </r>
       <r>     2.2386    23.3790   476.7907 </r>
       <r>     2.3928    25.4224   480.7106 </r>
       <r>     2.5470     1.8769   481.0000 </r>
       <r>     2.7011     0.0000   481.0000 </r>
       <r>     2.8553     0.0000   481.0000 </r>
       <r>     3.0095     0.0000   481.0000 </r>
       <r>     3.1637     0.0000   481.0000 </r>
       <r>     3.3179     0.0000   481.0000 </r>
       <r>     3.4721     0.0000   481.0000 </r>
       <r>     3.6263     0.0000   481.0000 </r>
       <r>     3.7805     0.0000   481.0000 </r>
       <r>     3.9347     0.0000   481.0000 </r>
       <r>     4.0889     0.0000   481.0000 </r>
       <r>     4.2430     0.2740   481.0422 </r>
       <r>     4.3972     6.3812   482.0262 </r>
       <r>     4.5514    21.4983   485.3410 </r>
       <r>     4.7056    48.9933   492.8952 </r>
       <r>     4.8598    55.5263   501.4568 </r>
       <r>     5.0140    50.6919   509.2730 </r>
       <r>     5.1682    59.9659   518.5191 </r>
       <r>     5.3224    63.9248   528.3757 </r>
       <r>     5.4766    75.4359   540.0071 </r>
       <r>     5.6308    77.1816   551.9077 </r>
       <r>     5.7849    76.1980   563.6567 </r>
       <r>     5.9391    74.7940   575.1892 </r>
       <r>     6.0933    68.2018   585.7052 </r>
       <r>     6.2475    71.7657   596.7707 </r>
       <r>     6.4017    63.0362   606.4902 </r>
       <r>     6.5559    29.3722   611.0191 </r>
       <r>     6.7101    18.6399   613.8932 </r>
       <r>     6.8643    11.1543   615.6131 </r>
       <r>     7.0185    14.2850   617.8157 </r>
       <r>     7.1727    16.2624   620.3232 </r>
       <r>     7.3268    16.8141   622.9158 </r>
       <r>     7.4810    12.0028   624.7665 </r>
       <r>     7.6352    16.3264   627.2838 </r>
       <r>     7.7894    16.3855   629.8103 </r>
       <r>     7.9436    19.9152   632.8810 </r>
       <r>     8.0978    19.7052   635.9194 </r>
       <r>     8.2520    27.3023   640.1291 </r>
       <r>     8.4062    25.6841   644.0893 </r>
       <r>     8.5604    23.4839   647.7103 </r>
       <r>     8.7145    27.2726   651.9155 </r>
       <r>     8.8687    32.9711   656.9993 </r>
       <r>     9.0229    35.1770   662.4232 </r>
       <r>     9.1771    35.7149   667.9301 </r>
       <r>     9.3313    38.0664   673.7995 </r>
       <r>     9.4855    42.8749   680.4104 </r>
       <r>     9.6397    48.2480   687.8497 </r>
       <r>     9.7939    51.4022   695.7754 </r>
       <r>     9.9481    55.1904   704.2852 </r>
       <r>    10.1023    60.1829   713.5648 </r>
       <r>    10.2564    53.9403   721.8818 </r>
       <r>    10.4106    54.1740   730.2349 </r>
       <r>    10.5648    56.5544   738.9550 </r>
       <r>    10.7190    57.2108   747.7763 </r>
       <r>    10.8732    53.0715   755.9594 </r>
       <r>    11.0274    55.6670   764.5427 </r>
       <r>    11.1816    22.4133   767.9986 </r>
       <r>    11.3358     0.0091   768.0000 </r>
       <r>    11.4900     0.0000   768.0000 </r>
       <r>    11.6442     0.0000   768.0000 </r>
       <r>    11.7983     0.0000   768.0000 </r>
       <r>    11.9525     0.0000   768.0000 </r>
       <r>    12.1067     0.0000   768.0000 </r>
       <r>    12.2609     0.0000   768.0000 </r>
       <r>    12.4151     0.0000   768.0000 </r>
       <r>    12.5693     0.0000   768.0000 </r>
       <r>    12.7235     0.0000   768.0000 </r>
       <r>    12.8777     0.0000   768.0000 </r>
       <r>    13.0319     0.0000   768.0000 </r>
       <r>    13.1861     0.0000   768.0000 </r>
      </set>
     </set>
    </array>
   </total>
  </dos>
 </calculation>
 <structure name="finalpos" >
  <crystal>
   <varray name="basis" >
    <v>      11.24380274      -0.00193836       0.00536803 </v>
    <v>      -0.00170299      11.26347960       0.00010146 </v>
    <v>       0.00773360      -0.00002208      15.84139182 </v>
   </varray>
   <i name="volume">   2006.22213476 </i>
   <varray name="rec_basis" >
    <v>       0.08893790       0.00001345      -0.00004342 </v>
    <v>       0.00001531       0.08878251       0.00000012 </v>
    <v>      -0.00003014      -0.00000057       0.06312578 </v>
   </varray>
  </crystal>
  <varray name="positions" >
   <v>       0.01383433       0.26094319       0.12392511 </v>
   <v>       0.98717268       0.23965900       0.62200618 </v>
   <v>       0.99187726       0.74160252       0.12878545 </v>
   <v>       0.99312263       0.75805972       0.62487665 </v>
   <v>       0.49726438       0.25704668       0.12222119 </v>
   <v>       0.51213889       0.24896613       0.62000302 </v>
   <v>       0.51572449       0.73945925       0.12437467 </v>
   <v>       0.50540289       0.74918459       0.62287424 </v>
   <v>       0.00315077       0.24774359       0.37908023 </v>
   <v>       0.98887603       0.24303789       0.87604856 </v>
   <v>       0.98820100       0.74842734       0.38740901 </v>
   <v>       0.00126877       0.75265637       0.86626405 </v>
   <v>       0.49597083       0.25489622       0.38249663 </v>
   <v>       0.51098089       0.24920895       0.87631544 </v>
   <v>       0.50830772       0.74742914       0.38309658 </v>
   <v>       0.49829122       0.74921726       0.86380613 </v>
   <v>       0.25552539       0.02215809       0.12481511 </v>
   <v>       0.24969872       0.99671923       0.62309092 </v>
   <v>       0.26169607       0.48395539       0.12385639 </v>
   <v>       0.25534760       0.51196834       0.62567987 </v>
   <v>       0.74528332       0.99943211       0.11867180 </v>
   <v>       0.75107143       0.99474899       0.62307385 </v>
   <v>       0.74718370       0.49367828       0.12857763 </v>
   <v>       0.73412409       0.49986067       0.62142519 </v>
   <v>       0.24541198       0.01728404       0.38376215 </v>
   <v>       0.25252482       0.00073735       0.86827526 </v>
   <v>       0.25483381       0.49035713       0.37517813 </v>
   <v>       0.25688016       0.50679864       0.87728988 </v>
   <v>       0.75309637       0.99425914       0.38402180 </v>
   <v>       0.75050724       0.00347723       0.86938147 </v>
   <v>       0.73683249       0.49936229       0.38376553 </v>
   <v>       0.74546242       0.49460831       0.86957135 </v>
   <v>       0.00476370       0.49198051       0.99963055 </v>
   <v>       0.99084775       0.50648871       0.49991777 </v>
   <v>       0.49760666       0.00417003       0.99928386 </v>
   <v>       0.50346946       0.99987879       0.49869067 </v>
   <v>       0.25766314       0.24905427       0.99733766 </v>
   <v>       0.26007367       0.74951254       0.00265180 </v>
   <v>       0.25136979       0.75575900       0.50320292 </v>
   <v>       0.74148477       0.75608551       0.99729376 </v>
   <v>       0.23618208       0.24502770       0.74887260 </v>
   <v>       0.24527613       0.72972678       0.24701788 </v>
   <v>       0.76250445       0.25360921       0.24984539 </v>
   <v>       0.75030654       0.24997579       0.74946176 </v>
   <v>       0.99718385       0.99347559       0.75140185 </v>
   <v>       0.00233361       0.50249867       0.74628700 </v>
   <v>       0.50171382       0.99834192       0.74859407 </v>
   <v>       0.50210675       0.49019023       0.25075818 </v>
   <v>       0.99277516       0.00922819       0.00276399 </v>
   <v>       0.99793573       0.99891111       0.50424697 </v>
   <v>       0.50726228       0.49150441       0.99852185 </v>
   <v>       0.49426554       0.49920971       0.50139598 </v>
   <v>       0.25987146       0.24555020       0.50328134 </v>
   <v>       0.74677412       0.24824266       0.00162625 </v>
   <v>       0.74983778       0.24482246       0.49778099 </v>
   <v>       0.74496338       0.75310647       0.50240317 </v>
   <v>       0.24766870       0.25711651       0.25223901 </v>
   <v>       0.24861959       0.75109600       0.74941589 </v>
   <v>       0.73783731       0.73420338       0.25340230 </v>
   <v>       0.75223613       0.74743545       0.74743408 </v>
   <v>       0.99632202       0.02361043       0.24184123 </v>
   <v>       0.00012888       0.50029514       0.25394957 </v>
   <v>       0.50233690       0.99897506       0.25004106 </v>
   <v>       0.50711523       0.51319640       0.75075169 </v>
   <v>       0.11414757       0.14015358       0.24594754 </v>
   <v>       0.11173591       0.13917114       0.75524181 </v>
   <v>       0.10094617       0.65435845       0.25834236 </v>
   <v>       0.11029927       0.63872581       0.74559379 </v>
   <v>       0.61972806       0.13018660       0.75209462 </v>
   <v>       0.60578843       0.63267766       0.25113507 </v>
   <v>       0.61738983       0.63704985       0.75188572 </v>
   <v>       0.38744913       0.36164283       0.24796840 </v>
   <v>       0.38147473       0.87150226       0.75223681 </v>
   <v>       0.89324558       0.35284689       0.24700247 </v>
   <v>       0.89230040       0.36279231       0.75370253 </v>
   <v>       0.88591045       0.86389707       0.75199923 </v>
   <v>       0.37326658       0.10602898       0.25193864 </v>
   <v>       0.37163006       0.13346801       0.74345095 </v>
   <v>       0.35905571       0.61226658       0.24309410 </v>
   <v>       0.35987737       0.61406265       0.75665207 </v>
   <v>       0.84268453       0.09534406       0.24544296 </v>
   <v>       0.86823108       0.11312492       0.75393805 </v>
   <v>       0.86265317       0.61123764       0.25826989 </v>
   <v>       0.86860980       0.60719495       0.73414840 </v>
   <v>       0.13854263       0.39780834       0.23807085 </v>
   <v>       0.14978794       0.39529026       0.76364683 </v>
   <v>       0.13558524       0.88898520       0.74896869 </v>
   <v>       0.63600766       0.37893865       0.25094151 </v>
   <v>       0.62777654       0.37657470       0.75073886 </v>
   <v>       0.62847305       0.88654842       0.24478276 </v>
   <v>       0.63193933       0.88470283       0.76164989 </v>
   <v>       0.36147837       0.38761828       0.00251504 </v>
   <v>       0.34974482       0.39171395       0.49882056 </v>
   <v>       0.34854829       0.89715720       0.00279797 </v>
   <v>       0.36624405       0.88918743       0.49840683 </v>
   <v>       0.86359427       0.39499163       0.00194927 </v>
   <v>       0.88214596       0.37180593       0.49669273 </v>
   <v>       0.88322629       0.86182824       0.00108736 </v>
   <v>       0.87271802       0.87702551       0.50187093 </v>
   <v>       0.14103589       0.11120492       0.99885235 </v>
   <v>       0.12470327       0.13335687       0.50038369 </v>
   <v>       0.11356601       0.64771165       0.00979432 </v>
   <v>       0.13246356       0.61975937       0.49168980 </v>
   <v>       0.63690831       0.10206872       0.99675404 </v>
   <v>       0.63075779       0.11467282       0.50520827 </v>
   <v>       0.65216546       0.60854416       0.00454729 </v>
   <v>       0.62781153       0.61866069       0.49971301 </v>
   <v>       0.11671071       0.37058311       0.99598191 </v>
   <v>       0.12215271       0.87231185       0.49672179 </v>
   <v>       0.61266874       0.35646388       0.99982604 </v>
   <v>       0.61826111       0.36675619       0.49920588 </v>
   <v>       0.60944639       0.85777887       0.99674352 </v>
   <v>       0.61337922       0.86862789       0.49720551 </v>
   <v>       0.39214515       0.14047896       0.00472230 </v>
   <v>       0.38577662       0.13427282       0.50125774 </v>
   <v>       0.38241278       0.64163716       0.00658104 </v>
   <v>       0.37790683       0.64088694       0.49090900 </v>
   <v>       0.88731564       0.13664455       0.01311918 </v>
   <v>       0.88105653       0.12453507       0.48806534 </v>
   <v>       0.87720928       0.62366250       0.50331171 </v>
   <v>       0.01770844       0.96448274       0.12903502 </v>
   <v>       0.00099321       0.00259599       0.62809505 </v>
   <v>       0.98529200       0.51466763       0.12004799 </v>
   <v>       0.02608125       0.47581704       0.61906485 </v>
   <v>       0.50048885       0.99730962       0.12985620 </v>
   <v>       0.50214022       0.99369817       0.62574159 </v>
   <v>       0.50213628       0.49977322       0.12525511 </v>
   <v>       0.48655554       0.49009405       0.63005379 </v>
   <v>       0.00687807       0.95555951       0.34649271 </v>
   <v>       0.00645628       0.99259618       0.88046723 </v>
   <v>       0.01860116       0.47836138       0.38021935 </v>
   <v>       0.98834973       0.52346654       0.87994339 </v>
   <v>       0.50944888       0.00531399       0.36828284 </v>
   <v>       0.48867353       0.00354140       0.87750316 </v>
   <v>       0.49591004       0.49718387       0.37241434 </v>
   <v>       0.49085775       0.49143334       0.87387738 </v>
   <v>       0.23699255       0.26147981       0.37673637 </v>
   <v>       0.27021733       0.25559944       0.87260076 </v>
   <v>       0.27294593       0.80254669       0.34886738 </v>
   <v>       0.23736340       0.76133422       0.88400240 </v>
   <v>       0.73265321       0.23405959       0.36758548 </v>
   <v>       0.75605799       0.24576496       0.87623766 </v>
   <v>       0.75619813       0.76165796       0.37127988 </v>
   <v>       0.76884151       0.73008854       0.87985004 </v>
   <v>       0.24955370       0.25199414       0.12159263 </v>
   <v>       0.24347054       0.27029554       0.62859107 </v>
   <v>       0.24004403       0.79201829       0.13506447 </v>
   <v>       0.25268865       0.75241573       0.62229346 </v>
   <v>       0.72613973       0.23462572       0.13136208 </v>
   <v>       0.75623978       0.24745735       0.62643990 </v>
   <v>       0.76268610       0.74817938       0.12639438 </v>
   <v>       0.74334566       0.75883825       0.62577028 </v>
  </varray>
 </structure>
</modeling>
