<?xml version="1.0" encoding="ISO-8859-1"?>
<modeling>
 <generator>
  <i name="program" type="string">vasp </i>
  <i name="version" type="string">5.4.1  </i>
  <i name="subversion" type="string">05Feb16 (build Jan 25 2017 20:16:33) complex                          parallel </i>
  <i name="platform" type="string">BWXE6 </i>
  <i name="date" type="string">2019 07 14 </i>
  <i name="time" type="string">14:53:40 </i>
 </generator>
 <incar>
  <i type="string" name="SYSTEM"> STF</i>
  <i type="string" name="PREC">normal</i>
  <i type="string" name="ALGO"> Fast</i>
  <i type="int" name="ISPIN">     2</i>
  <i type="int" name="NELM">    40</i>
  <i type="int" name="NELMIN">     8</i>
  <i type="int" name="IBRION">     2</i>
  <i name="EDIFF">      0.00010000</i>
  <i name="EDIFFG">     -0.03000000</i>
  <i type="int" name="NSW">    30</i>
  <i type="int" name="ISIF">     3</i>
  <i name="ENCUT">    520.00000000</i>
  <i type="int" name="NBANDS">   768</i>
  <v name="MAGMOM">      0.60000000      0.60000000      0.60000000      0.60000000      0.60000000      0.60000000      0.60000000      0.60000000      0.60000000      0.60000000      0.60000000      0.60000000      0.60000000      0.60000000      0.60000000      0.60000000      0.60000000      0.60000000      0.60000000      0.60000000
      0.60000000      0.60000000      0.60000000      0.60000000      0.60000000      0.60000000      0.60000000      0.60000000      0.60000000      0.60000000      0.60000000      0.60000000      0.60000000      0.60000000      0.60000000      0.60000000      0.60000000      0.60000000      0.60000000      0.60000000
      0.60000000      0.60000000      0.60000000      0.60000000      0.60000000      0.60000000      0.60000000      0.60000000      5.00000000      5.00000000      5.00000000      5.00000000      5.00000000      5.00000000      5.00000000      5.00000000      5.00000000      5.00000000      5.00000000      5.00000000
      5.00000000      5.00000000      5.00000000      5.00000000      0.60000000      0.60000000      0.60000000      0.60000000      0.60000000      0.60000000      0.60000000      0.60000000      0.60000000      0.60000000      0.60000000      0.60000000      0.60000000      0.60000000      0.60000000      0.60000000
      0.60000000      0.60000000      0.60000000      0.60000000      0.60000000      0.60000000      0.60000000      0.60000000      0.60000000      0.60000000      0.60000000      0.60000000      0.60000000      0.60000000      0.60000000      0.60000000      0.60000000      0.60000000      0.60000000      0.60000000
      0.60000000      0.60000000      0.60000000      0.60000000      0.60000000      0.60000000      0.60000000      0.60000000      0.60000000      0.60000000      0.60000000      0.60000000      0.60000000      0.60000000      0.60000000      0.60000000      0.60000000      0.60000000      0.60000000      0.60000000
      0.60000000      0.60000000      0.60000000      0.60000000      0.60000000      0.60000000      0.60000000      0.60000000      0.60000000      0.60000000      0.60000000      0.60000000      0.60000000      0.60000000      0.60000000      0.60000000      0.60000000      0.60000000      0.60000000      0.60000000
      0.60000000      0.60000000      0.60000000      0.60000000      0.60000000      0.60000000      0.60000000      0.60000000      0.60000000      0.60000000      0.60000000      0.60000000</v>
  <i type="string" name="LREAL"> Auto</i>
  <i type="int" name="ISMEAR">     0</i>
  <i name="SIGMA">      0.05000000</i>
  <i type="int" name="LMAXMIX">     4</i>
  <v type="int" name="KPOINT_BSE">    -1     0     0     0</v>
  <i type="int" name="NELM">    40</i>
  <i type="logical" name="LDAU"> T  </i>
  <v type="int" name="LDAUTYPE">     2</v>
  <v type="int" name="LDAUL">     0     2     2     0</v>
  <v name="LDAUU">      0.00000000      3.00000000      5.00000000      0.00000000</v>
  <v name="LDAUJ">      0.00000000      0.00000000      0.00000000      0.00000000</v>
  <i type="int" name="LDAUPRINT">     1</i>
 </incar>
 <kpoints>
  <generation param="Monkhorst-Pack">
   <v type="int" name="divisions">       2        2        2 </v>
   <v name="usershift">      0.00000000       0.00000000       0.00000000 </v>
   <v name="genvec1">      0.50000000       0.00000000       0.00000000 </v>
   <v name="genvec2">     -0.00000000       0.50000000      -0.00000000 </v>
   <v name="genvec3">      0.00000000      -0.00000000       0.50000000 </v>
   <v name="shift">      0.50000000       0.50000000       0.50000000 </v>
  </generation>
  <varray name="kpointlist" >
   <v>       0.25000000       0.25000000       0.25000000 </v>
   <v>      -0.25000000       0.25000000       0.25000000 </v>
   <v>       0.25000000      -0.25000000       0.25000000 </v>
   <v>      -0.25000000      -0.25000000       0.25000000 </v>
  </varray>
  <varray name="weights" >
   <v>       0.25000000 </v>
   <v>       0.25000000 </v>
   <v>       0.25000000 </v>
   <v>       0.25000000 </v>
  </varray>
 </kpoints>
 <parameters>
  <separator name="general" >
   <i type="string" name="SYSTEM">STF</i>
   <i type="logical" name="LCOMPAT"> F  </i>
  </separator>
  <separator name="electronic" >
   <i type="string" name="PREC">normal</i>
   <i name="ENMAX">    520.00000000</i>
   <i name="ENAUG">    605.39200000</i>
   <i name="EDIFF">      0.00010000</i>
   <i type="int" name="IALGO">    68</i>
   <i type="int" name="IWAVPR">    11</i>
   <i type="int" name="NBANDS">   768</i>
   <i name="NELECT">   1040.00000000</i>
   <i type="int" name="TURBO">     0</i>
   <i type="int" name="IRESTART">     0</i>
   <i type="int" name="NREBOOT">     0</i>
   <i type="int" name="NMIN">     0</i>
   <i name="EREF">      0.00000000</i>
   <separator name="electronic smearing" >
    <i type="int" name="ISMEAR">     0</i>
    <i name="SIGMA">      0.05000000</i>
    <i name="KSPACING">      0.50000000</i>
    <i type="logical" name="KGAMMA"> T  </i>
   </separator>
   <separator name="electronic projectors" >
    <i type="logical" name="LREAL"> T  </i>
    <v name="ROPT">     -0.00050000     -0.00050000     -0.00050000     -0.00050000</v>
    <i type="int" name="LMAXPAW">  -100</i>
    <i type="int" name="LMAXMIX">     4</i>
    <i type="logical" name="NLSPLINE"> F  </i>
   </separator>
   <separator name="electronic startup" >
    <i type="int" name="ISTART">     1</i>
    <i type="int" name="ICHARG">     0</i>
    <i type="int" name="INIWAV">     1</i>
   </separator>
   <separator name="electronic spin" >
    <i type="int" name="ISPIN">     2</i>
    <i type="logical" name="LNONCOLLINEAR"> F  </i>
    <v name="MAGMOM">      0.60000000      0.60000000      0.60000000      0.60000000      0.60000000      0.60000000      0.60000000      0.60000000      0.60000000      0.60000000      0.60000000      0.60000000      0.60000000      0.60000000      0.60000000      0.60000000      0.60000000      0.60000000      0.60000000      0.60000000
      0.60000000      0.60000000      0.60000000      0.60000000      0.60000000      0.60000000      0.60000000      0.60000000      0.60000000      0.60000000      0.60000000      0.60000000      0.60000000      0.60000000      0.60000000      0.60000000      0.60000000      0.60000000      0.60000000      0.60000000
      0.60000000      0.60000000      0.60000000      0.60000000      0.60000000      0.60000000      0.60000000      0.60000000      5.00000000      5.00000000      5.00000000      5.00000000      5.00000000      5.00000000      5.00000000      5.00000000      5.00000000      5.00000000      5.00000000      5.00000000
      5.00000000      5.00000000      5.00000000      5.00000000      0.60000000      0.60000000      0.60000000      0.60000000      0.60000000      0.60000000      0.60000000      0.60000000      0.60000000      0.60000000      0.60000000      0.60000000      0.60000000      0.60000000      0.60000000      0.60000000
      0.60000000      0.60000000      0.60000000      0.60000000      0.60000000      0.60000000      0.60000000      0.60000000      0.60000000      0.60000000      0.60000000      0.60000000      0.60000000      0.60000000      0.60000000      0.60000000      0.60000000      0.60000000      0.60000000      0.60000000
      0.60000000      0.60000000      0.60000000      0.60000000      0.60000000      0.60000000      0.60000000      0.60000000      0.60000000      0.60000000      0.60000000      0.60000000      0.60000000      0.60000000      0.60000000      0.60000000      0.60000000      0.60000000      0.60000000      0.60000000
      0.60000000      0.60000000      0.60000000      0.60000000      0.60000000      0.60000000      0.60000000      0.60000000      0.60000000      0.60000000      0.60000000      0.60000000      0.60000000      0.60000000      0.60000000      0.60000000      0.60000000      0.60000000      0.60000000      0.60000000
      0.60000000      0.60000000      0.60000000      0.60000000      0.60000000      0.60000000      0.60000000      0.60000000      0.60000000      0.60000000      0.60000000      0.60000000</v>
    <i name="NUPDOWN">     -1.00000000</i>
    <i type="logical" name="LSORBIT"> F  </i>
    <v name="SAXIS">      0.00000000      0.00000000      1.00000000</v>
    <i type="logical" name="LSPIRAL"> F  </i>
    <v name="QSPIRAL">      0.00000000      0.00000000      0.00000000</v>
    <i type="logical" name="LZEROZ"> F  </i>
   </separator>
   <separator name="electronic exchange-correlation" >
    <i type="logical" name="LASPH"> F  </i>
    <i type="logical" name="LMETAGGA"> F  </i>
   </separator>
   <separator name="electronic convergence" >
    <i type="int" name="NELM">    40</i>
    <i type="int" name="NELMDL">     0</i>
    <i type="int" name="NELMIN">     8</i>
    <i name="ENINI">    520.00000000</i>
    <separator name="electronic convergence detail" >
     <i type="logical" name="LDIAG"> T  </i>
     <i type="logical" name="LSUBROT"> F  </i>
     <i name="WEIMIN">      0.00100000</i>
     <i name="EBREAK">      0.00000003</i>
     <i name="DEPER">      0.30000000</i>
     <i type="int" name="NRMM">     4</i>
     <i name="TIME">      0.40000000</i>
    </separator>
   </separator>
   <separator name="electronic mixer" >
    <i name="AMIX">      0.40000000</i>
    <i name="BMIX">      1.00000000</i>
    <i name="AMIN">      0.10000000</i>
    <i name="AMIX_MAG">      1.60000000</i>
    <i name="BMIX_MAG">      1.00000000</i>
    <separator name="electronic mixer details" >
     <i type="int" name="IMIX">     4</i>
     <i type="logical" name="MIXFIRST"> F  </i>
     <i type="int" name="MAXMIX">   -45</i>
     <i name="WC">    100.00000000</i>
     <i type="int" name="INIMIX">     1</i>
     <i type="int" name="MIXPRE">     1</i>
     <i type="int" name="MREMOVE">     5</i>
    </separator>
   </separator>
   <separator name="electronic dipolcorrection" >
    <i type="logical" name="LDIPOL"> F  </i>
    <i type="logical" name="LMONO"> F  </i>
    <i type="int" name="IDIPOL">     0</i>
    <i name="EPSILON">      1.00000000</i>
    <v name="DIPOL">   -100.00000000   -100.00000000   -100.00000000</v>
    <i name="EFIELD">      0.00000000</i>
   </separator>
  </separator>
  <separator name="grids" >
   <i type="int" name="NGX">    64</i>
   <i type="int" name="NGY">    64</i>
   <i type="int" name="NGZ">    90</i>
   <i type="int" name="NGXF">   128</i>
   <i type="int" name="NGYF">   128</i>
   <i type="int" name="NGZF">   180</i>
   <i type="logical" name="ADDGRID"> F  </i>
  </separator>
  <separator name="ionic" >
   <i type="int" name="NSW">    30</i>
   <i type="int" name="IBRION">     2</i>
   <i type="int" name="ISIF">     3</i>
   <i name="PSTRESS">      0.00000000</i>
   <i name="EDIFFG">     -0.03000000</i>
   <i type="int" name="NFREE">     1</i>
   <i name="POTIM">      0.50000000</i>
   <i name="SMASS">     -3.00000000</i>
   <i name="SCALEE">      1.00000000</i>
  </separator>
  <separator name="ionic md" >
   <i name="TEBEG">      0.00010000</i>
   <i name="TEEND">      0.00010000</i>
   <i type="int" name="NBLOCK">     1</i>
   <i type="int" name="KBLOCK">    30</i>
   <i type="int" name="NPACO">   256</i>
   <i name="APACO">     16.00000000</i>
  </separator>
  <separator name="symmetry" >
   <i type="int" name="ISYM">     2</i>
   <i name="SYMPREC">      0.00001000</i>
  </separator>
  <separator name="dos" >
   <i type="logical" name="LORBIT"> F  </i>
   <v name="RWIGS">     -1.00000000     -1.00000000     -1.00000000     -1.00000000</v>
   <i type="int" name="NEDOS">   301</i>
   <i name="EMIN">     10.00000000</i>
   <i name="EMAX">    -10.00000000</i>
   <i name="EFERMI">      0.00000000</i>
  </separator>
  <separator name="writing" >
   <i type="int" name="NWRITE">     2</i>
   <i type="logical" name="LWAVE"> T  </i>
   <i type="logical" name="LCHARG"> T  </i>
   <i type="logical" name="LPARD"> F  </i>
   <i type="logical" name="LVTOT"> F  </i>
   <i type="logical" name="LVHAR"> F  </i>
   <i type="logical" name="LELF"> F  </i>
   <i type="logical" name="LOPTICS"> F  </i>
   <v name="STM">      0.00000000      0.00000000      0.00000000      0.00000000      0.00000000      0.00000000      0.00000000</v>
  </separator>
  <separator name="performance" >
   <i type="int" name="NPAR">     2</i>
   <i type="int" name="NSIM">     4</i>
   <i type="int" name="NBLK">    -1</i>
   <i type="logical" name="LPLANE"> T  </i>
   <i type="logical" name="LSCALAPACK"> T  </i>
   <i type="logical" name="LSCAAWARE"> F  </i>
   <i type="logical" name="LSCALU"> F  </i>
   <i type="logical" name="LASYNC"> F  </i>
   <i type="logical" name="LORBITALREAL"> F  </i>
  </separator>
  <separator name="miscellaneous" >
   <i type="int" name="IDIOT">     3</i>
   <i type="logical" name="LMUSIC"> F  </i>
   <v name="POMASS">     87.62000000     47.88000000     55.84700000     16.00000000</v>
   <v name="DARWINR">      0.00000000      0.00000000      0.00000000      0.00000000</v>
   <v name="DARWINV">      1.00000000      1.00000000      1.00000000      1.00000000</v>
   <i type="logical" name="LCORR"> T  </i>
  </separator>
  <i type="logical" name="GGA_COMPAT"> T  </i>
  <i type="logical" name="LBERRY"> F  </i>
  <i type="int" name="ICORELEVEL">     0</i>
  <i type="logical" name="LDAU"> T  </i>
  <v type="int" name="LDAUTYPE">     2</v>
  <v type="int" name="LDAUL">     0</v>
  <v name="LDAUU">      0.00000000</v>
  <v name="LDAUJ">      0.00000000</v>
  <i type="int" name="LDAUPRINT">     1</i>
  <i type="int" name="I_CONSTRAINED_M">     0</i>
  <separator name="electronic exchange-correlation" >
   <i type="string" name="GGA">--</i>
   <i type="int" name="VOSKOWN">     0</i>
   <i type="logical" name="LHFCALC"> F  </i>
   <i type="string" name="PRECFOCK"></i>
   <i type="logical" name="LSYMGRAD"> F  </i>
   <i type="logical" name="LHFONE"> F  </i>
   <i type="logical" name="LRHFCALC"> F  </i>
   <i type="logical" name="LTHOMAS"> F  </i>
   <i type="logical" name="LMODELHF"> F  </i>
   <i name="ENCUT4O">     -1.00000000</i>
   <i type="int" name="EXXOEP">     0</i>
   <i type="int" name="FOURORBIT">     0</i>
   <i name="AEXX">      0.00000000</i>
   <i name="HFALPHA">      0.00000000</i>
   <i name="MCALPHA">      0.00000000</i>
   <i name="ALDAX">      1.00000000</i>
   <i name="AGGAX">      1.00000000</i>
   <i name="ALDAC">      1.00000000</i>
   <i name="AGGAC">      1.00000000</i>
   <i type="int" name="NKREDX">     1</i>
   <i type="int" name="NKREDY">     1</i>
   <i type="int" name="NKREDZ">     1</i>
   <i type="logical" name="SHIFTRED"> F  </i>
   <i type="logical" name="ODDONLY"> F  </i>
   <i type="logical" name="EVENONLY"> F  </i>
   <i type="int" name="LMAXFOCK">     0</i>
   <i type="int" name="NMAXFOCKAE">     0</i>
   <i type="logical" name="LFOCKAEDFT"> F  </i>
   <i name="HFSCREEN">      0.00000000</i>
   <i name="HFSCREENC">      0.00000000</i>
   <i type="int" name="NBANDSGWLOW">     0</i>
  </separator>
  <separator name="vdW DFT" >
   <i type="logical" name="LUSE_VDW"> F  </i>
   <i name="Zab_VDW">     -0.84910000</i>
   <i name="PARAM1">      0.12340000</i>
   <i name="PARAM2">      1.00000000</i>
   <i name="PARAM3">      0.00000000</i>
  </separator>
  <separator name="model GW" >
   <i type="int" name="MODEL_GW">     0</i>
   <i name="MODEL_EPS0">      7.94277216</i>
   <i name="MODEL_ALPHA">      1.00000000</i>
  </separator>
  <separator name="linear response parameters" >
   <i type="logical" name="LEPSILON"> F  </i>
   <i type="logical" name="LRPA"> F  </i>
   <i type="logical" name="LNABLA"> F  </i>
   <i type="logical" name="LVEL"> F  </i>
   <i type="int" name="KINTER">     0</i>
   <i name="CSHIFT">      0.10000000</i>
   <i name="OMEGAMAX">     -1.00000000</i>
   <i name="DEG_THRESHOLD">      0.00200000</i>
  </separator>
  <separator name="orbital magnetization" >
   <i type="logical" name="NUCIND"> F  </i>
   <v name="MAGPOS">      0.00000000      0.00000000      0.00000000</v>
   <i type="logical" name="LNICSALL"> T  </i>
   <i type="logical" name="ORBITALMAG"> F  </i>
   <i type="logical" name="LMAGBLOCH"> F  </i>
   <i type="logical" name="LCHIMAG"> F  </i>
   <i type="logical" name="LGAUGE"> T  </i>
   <i type="int" name="MAGATOM">     0</i>
   <v name="MAGDIPOL">      0.00000000      0.00000000      0.00000000</v>
   <v name="AVECCONST">      0.00000000      0.00000000      0.00000000</v>
  </separator>
  <separator name="response functions" >
   <i type="logical" name="LADDER"> F  </i>
   <i type="logical" name="LFXC"> F  </i>
   <i type="logical" name="LHARTREE"> T  </i>
   <i type="int" name="IBSE">     0</i>
   <v type="int" name="KPOINT">    -1     0     0     0</v>
   <i type="logical" name="LTCTE"> F  </i>
   <i type="logical" name="LTETE"> F  </i>
   <i type="logical" name="LTRIPLET"> F  </i>
   <i type="logical" name="LFXCEPS"> F  </i>
   <i type="logical" name="LFXHEG"> F  </i>
   <i type="int" name="NATURALO">     0</i>
   <i type="logical" name="L2ORDER"> F  </i>
   <i type="logical" name="LUSEW"> F  </i>
   <i name="ENCUTGW">     -2.00000000</i>
   <i name="ENCUTGWSOFT">     -2.00000000</i>
   <i name="ENCUTLF">     -1.00000000</i>
   <i type="int" name="LMAXMP2">    -1</i>
   <i name="SCISSOR">      0.00000000</i>
   <i type="int" name="NOMEGA">     0</i>
   <i type="int" name="NOMEGAR">     0</i>
   <i type="int" name="NBANDSGW">    -1</i>
   <i type="int" name="NBANDSO">    -1</i>
   <i type="int" name="NBANDSV">    -1</i>
   <i type="int" name="NELM">    40</i>
   <i type="int" name="NELMHF">     1</i>
   <i type="int" name="DIM">     3</i>
   <i type="int" name="ANTIRES">     0</i>
   <i name="OMEGAMAX">    -30.00000000</i>
   <i name="OMEGAMIN">    -30.00000000</i>
   <i name="OMEGATL">   -200.00000000</i>
   <i type="int" name="OMEGAGRID">     0</i>
   <i name="CSHIFT">     -0.10000000</i>
   <i type="logical" name="SELFENERGY"> F  </i>
   <i type="logical" name="LSPECTRAL"> F  </i>
   <i type="logical" name="LSPECTRALGW"> F  </i>
   <i type="logical" name="LSINGLES"> F  </i>
   <i type="logical" name="LFERMIGW"> F  </i>
   <i type="logical" name="ODDONLYGW"> F  </i>
   <i type="logical" name="EVENONLYGW"> F  </i>
   <i type="int" name="NKREDLFX">     1</i>
   <i type="int" name="NKREDLFY">     1</i>
   <i type="int" name="NKREDLFZ">     1</i>
   <i type="int" name="MAXMEM">  1800</i>
   <i type="int" name="TELESCOPE">     0</i>
   <i type="int" name="TAUPAR">     1</i>
   <i type="int" name="OMEGAPAR">    -1</i>
   <i name="LAMBDA">      1.00000000</i>
  </separator>
  <separator name="External order field" >
   <i name="OFIELD_KAPPA">      0.00000000</i>
   <v name="OFIELD_K">      0.00000000      0.00000000      0.00000000</v>
   <i name="OFIELD_Q6_NEAR">      0.00000000</i>
   <i name="OFIELD_Q6_FAR">      0.00000000</i>
   <i name="OFIELD_A">      0.00000000</i>
  </separator>
 </parameters>
 <atominfo>
  <atoms>     152 </atoms>
  <types>       4 </types>
  <array name="atoms" >
   <dimension dim="1">ion</dimension>
   <field type="string">element</field>
   <field type="int">atomtype</field>
   <set>
    <rc><c>Sr</c><c>   1</c></rc>
    <rc><c>Sr</c><c>   1</c></rc>
    <rc><c>Sr</c><c>   1</c></rc>
    <rc><c>Sr</c><c>   1</c></rc>
    <rc><c>Sr</c><c>   1</c></rc>
    <rc><c>Sr</c><c>   1</c></rc>
    <rc><c>Sr</c><c>   1</c></rc>
    <rc><c>Sr</c><c>   1</c></rc>
    <rc><c>Sr</c><c>   1</c></rc>
    <rc><c>Sr</c><c>   1</c></rc>
    <rc><c>Sr</c><c>   1</c></rc>
    <rc><c>Sr</c><c>   1</c></rc>
    <rc><c>Sr</c><c>   1</c></rc>
    <rc><c>Sr</c><c>   1</c></rc>
    <rc><c>Sr</c><c>   1</c></rc>
    <rc><c>Sr</c><c>   1</c></rc>
    <rc><c>Sr</c><c>   1</c></rc>
    <rc><c>Sr</c><c>   1</c></rc>
    <rc><c>Sr</c><c>   1</c></rc>
    <rc><c>Sr</c><c>   1</c></rc>
    <rc><c>Sr</c><c>   1</c></rc>
    <rc><c>Sr</c><c>   1</c></rc>
    <rc><c>Sr</c><c>   1</c></rc>
    <rc><c>Sr</c><c>   1</c></rc>
    <rc><c>Sr</c><c>   1</c></rc>
    <rc><c>Sr</c><c>   1</c></rc>
    <rc><c>Sr</c><c>   1</c></rc>
    <rc><c>Sr</c><c>   1</c></rc>
    <rc><c>Sr</c><c>   1</c></rc>
    <rc><c>Sr</c><c>   1</c></rc>
    <rc><c>Sr</c><c>   1</c></rc>
    <rc><c>Sr</c><c>   1</c></rc>
    <rc><c>Ti</c><c>   2</c></rc>
    <rc><c>Ti</c><c>   2</c></rc>
    <rc><c>Ti</c><c>   2</c></rc>
    <rc><c>Ti</c><c>   2</c></rc>
    <rc><c>Ti</c><c>   2</c></rc>
    <rc><c>Ti</c><c>   2</c></rc>
    <rc><c>Ti</c><c>   2</c></rc>
    <rc><c>Ti</c><c>   2</c></rc>
    <rc><c>Ti</c><c>   2</c></rc>
    <rc><c>Ti</c><c>   2</c></rc>
    <rc><c>Ti</c><c>   2</c></rc>
    <rc><c>Ti</c><c>   2</c></rc>
    <rc><c>Ti</c><c>   2</c></rc>
    <rc><c>Ti</c><c>   2</c></rc>
    <rc><c>Ti</c><c>   2</c></rc>
    <rc><c>Ti</c><c>   2</c></rc>
    <rc><c>Fe</c><c>   3</c></rc>
    <rc><c>Fe</c><c>   3</c></rc>
    <rc><c>Fe</c><c>   3</c></rc>
    <rc><c>Fe</c><c>   3</c></rc>
    <rc><c>Fe</c><c>   3</c></rc>
    <rc><c>Fe</c><c>   3</c></rc>
    <rc><c>Fe</c><c>   3</c></rc>
    <rc><c>Fe</c><c>   3</c></rc>
    <rc><c>Fe</c><c>   3</c></rc>
    <rc><c>Fe</c><c>   3</c></rc>
    <rc><c>Fe</c><c>   3</c></rc>
    <rc><c>Fe</c><c>   3</c></rc>
    <rc><c>Fe</c><c>   3</c></rc>
    <rc><c>Fe</c><c>   3</c></rc>
    <rc><c>Fe</c><c>   3</c></rc>
    <rc><c>Fe</c><c>   3</c></rc>
    <rc><c>O </c><c>   4</c></rc>
    <rc><c>O </c><c>   4</c></rc>
    <rc><c>O </c><c>   4</c></rc>
    <rc><c>O </c><c>   4</c></rc>
    <rc><c>O </c><c>   4</c></rc>
    <rc><c>O </c><c>   4</c></rc>
    <rc><c>O </c><c>   4</c></rc>
    <rc><c>O </c><c>   4</c></rc>
    <rc><c>O </c><c>   4</c></rc>
    <rc><c>O </c><c>   4</c></rc>
    <rc><c>O </c><c>   4</c></rc>
    <rc><c>O </c><c>   4</c></rc>
    <rc><c>O </c><c>   4</c></rc>
    <rc><c>O </c><c>   4</c></rc>
    <rc><c>O </c><c>   4</c></rc>
    <rc><c>O </c><c>   4</c></rc>
    <rc><c>O </c><c>   4</c></rc>
    <rc><c>O </c><c>   4</c></rc>
    <rc><c>O </c><c>   4</c></rc>
    <rc><c>O </c><c>   4</c></rc>
    <rc><c>O </c><c>   4</c></rc>
    <rc><c>O </c><c>   4</c></rc>
    <rc><c>O </c><c>   4</c></rc>
    <rc><c>O </c><c>   4</c></rc>
    <rc><c>O </c><c>   4</c></rc>
    <rc><c>O </c><c>   4</c></rc>
    <rc><c>O </c><c>   4</c></rc>
    <rc><c>O </c><c>   4</c></rc>
    <rc><c>O </c><c>   4</c></rc>
    <rc><c>O </c><c>   4</c></rc>
    <rc><c>O </c><c>   4</c></rc>
    <rc><c>O </c><c>   4</c></rc>
    <rc><c>O </c><c>   4</c></rc>
    <rc><c>O </c><c>   4</c></rc>
    <rc><c>O </c><c>   4</c></rc>
    <rc><c>O </c><c>   4</c></rc>
    <rc><c>O </c><c>   4</c></rc>
    <rc><c>O </c><c>   4</c></rc>
    <rc><c>O </c><c>   4</c></rc>
    <rc><c>O </c><c>   4</c></rc>
    <rc><c>O </c><c>   4</c></rc>
    <rc><c>O </c><c>   4</c></rc>
    <rc><c>O </c><c>   4</c></rc>
    <rc><c>O </c><c>   4</c></rc>
    <rc><c>O </c><c>   4</c></rc>
    <rc><c>O </c><c>   4</c></rc>
    <rc><c>O </c><c>   4</c></rc>
    <rc><c>O </c><c>   4</c></rc>
    <rc><c>O </c><c>   4</c></rc>
    <rc><c>O </c><c>   4</c></rc>
    <rc><c>O </c><c>   4</c></rc>
    <rc><c>O </c><c>   4</c></rc>
    <rc><c>O </c><c>   4</c></rc>
    <rc><c>O </c><c>   4</c></rc>
    <rc><c>O </c><c>   4</c></rc>
    <rc><c>O </c><c>   4</c></rc>
    <rc><c>O </c><c>   4</c></rc>
    <rc><c>O </c><c>   4</c></rc>
    <rc><c>O </c><c>   4</c></rc>
    <rc><c>O </c><c>   4</c></rc>
    <rc><c>O </c><c>   4</c></rc>
    <rc><c>O </c><c>   4</c></rc>
    <rc><c>O </c><c>   4</c></rc>
    <rc><c>O </c><c>   4</c></rc>
    <rc><c>O </c><c>   4</c></rc>
    <rc><c>O </c><c>   4</c></rc>
    <rc><c>O </c><c>   4</c></rc>
    <rc><c>O </c><c>   4</c></rc>
    <rc><c>O </c><c>   4</c></rc>
    <rc><c>O </c><c>   4</c></rc>
    <rc><c>O </c><c>   4</c></rc>
    <rc><c>O </c><c>   4</c></rc>
    <rc><c>O </c><c>   4</c></rc>
    <rc><c>O </c><c>   4</c></rc>
    <rc><c>O </c><c>   4</c></rc>
    <rc><c>O </c><c>   4</c></rc>
    <rc><c>O </c><c>   4</c></rc>
    <rc><c>O </c><c>   4</c></rc>
    <rc><c>O </c><c>   4</c></rc>
    <rc><c>O </c><c>   4</c></rc>
    <rc><c>O </c><c>   4</c></rc>
    <rc><c>O </c><c>   4</c></rc>
    <rc><c>O </c><c>   4</c></rc>
    <rc><c>O </c><c>   4</c></rc>
    <rc><c>O </c><c>   4</c></rc>
    <rc><c>O </c><c>   4</c></rc>
    <rc><c>O </c><c>   4</c></rc>
    <rc><c>O </c><c>   4</c></rc>
   </set>
  </array>
  <array name="atomtypes" >
   <dimension dim="1">type</dimension>
   <field type="int">atomspertype</field>
   <field type="string">element</field>
   <field>mass</field>
   <field>valence</field>
   <field type="string">pseudopotential</field>
   <set>
    <rc><c>  32</c><c>Sr</c><c>     87.62000000</c><c>     10.00000000</c><c>  PAW_PBE Sr_sv 07Sep2000               </c></rc>
    <rc><c>  16</c><c>Ti</c><c>     47.88000000</c><c>      4.00000000</c><c>  PAW_PBE Ti 08Apr2002                  </c></rc>
    <rc><c>  16</c><c>Fe</c><c>     55.84700000</c><c>      8.00000000</c><c>  PAW_PBE Fe 06Sep2000                  </c></rc>
    <rc><c>  88</c><c>O </c><c>     16.00000000</c><c>      6.00000000</c><c>  PAW_PBE O 08Apr2002                   </c></rc>
   </set>
  </array>
 </atominfo>
 <structure name="initialpos" >
  <crystal>
   <varray name="basis" >
    <v>      11.27487441      -0.02181120      -0.00005599 </v>
    <v>      -0.02129481      11.30279285       0.01434340 </v>
    <v>      -0.00001202       0.02020218      15.78953170 </v>
   </varray>
   <i name="volume">   2012.16894790 </i>
   <varray name="rec_basis" >
    <v>       0.08869311       0.00016710      -0.00000015 </v>
    <v>       0.00017115       0.08847417      -0.00011320 </v>
    <v>       0.00000016      -0.00008037       0.06333320 </v>
   </varray>
  </crystal>
  <varray name="positions" >
   <v>       0.00024366       0.25336526       0.12700083 </v>
   <v>       0.01294926       0.24999097       0.62236779 </v>
   <v>       0.00586571       0.74405171       0.11620908 </v>
   <v>       0.99951166       0.74799300       0.62539266 </v>
   <v>       0.48037458       0.24485839       0.12640900 </v>
   <v>       0.49332159       0.24775790       0.62720406 </v>
   <v>       0.50489493       0.75599042       0.11818178 </v>
   <v>       0.50361092       0.75664765       0.62562947 </v>
   <v>       0.00323526       0.24812045       0.39009802 </v>
   <v>       0.00751726       0.26158113       0.86544349 </v>
   <v>       0.00085941       0.75951931       0.38265422 </v>
   <v>       0.00289212       0.73701684       0.87163624 </v>
   <v>       0.49263899       0.24922349       0.38783627 </v>
   <v>       0.48419748       0.24749956       0.87744201 </v>
   <v>       0.49991399       0.75859191       0.38581352 </v>
   <v>       0.50400363       0.75238666       0.87276371 </v>
   <v>       0.25677812       0.98146840       0.12045484 </v>
   <v>       0.25248398       0.00148357       0.62622547 </v>
   <v>       0.25262445       0.50669678       0.11685559 </v>
   <v>       0.24279421       0.49976290       0.62424260 </v>
   <v>       0.74962539       0.97793557       0.12002451 </v>
   <v>       0.75434265       0.99041554       0.62356469 </v>
   <v>       0.74284817       0.51666528       0.12398217 </v>
   <v>       0.75861153       0.50793618       0.62460459 </v>
   <v>       0.25411247       0.99223527       0.38547215 </v>
   <v>       0.26258026       0.99650670       0.87024553 </v>
   <v>       0.25545822       0.50381808       0.38869826 </v>
   <v>       0.24877472       0.50331479       0.86822146 </v>
   <v>       0.75317007       0.99121179       0.38417581 </v>
   <v>       0.74697593       0.98808068       0.87421867 </v>
   <v>       0.75030547       0.50663955       0.38612202 </v>
   <v>       0.75659686       0.51176889       0.87805659 </v>
   <v>       0.00249881       0.49933207       0.50002773 </v>
   <v>       0.50310569       0.99654797       0.99999230 </v>
   <v>       0.50052227       0.50266426       0.99576337 </v>
   <v>       0.50216687       0.00131672       0.50424560 </v>
   <v>       0.74958602       0.75618796       0.25155571 </v>
   <v>       0.75024588       0.25219584       0.49663448 </v>
   <v>       0.99970233       0.00018070       0.25041500 </v>
   <v>       0.00319060       0.99822885       0.50392935 </v>
   <v>       0.25234382       0.24966246       0.74938171 </v>
   <v>       0.50350433       0.49768171       0.50567850 </v>
   <v>       0.00170184       0.48900452       0.00019984 </v>
   <v>       0.00262876       0.00173738       0.75560244 </v>
   <v>       0.24954375       0.75308083       0.25077997 </v>
   <v>       0.49867437       0.99747983       0.25196845 </v>
   <v>       0.75126129       0.74761516       0.75118689 </v>
   <v>       0.25021532       0.75184391       0.74972867 </v>
   <v>       0.00532462       0.97303205       0.99598046 </v>
   <v>       0.75189566       0.75061879       0.50043650 </v>
   <v>       0.00005346       0.50275183       0.74986363 </v>
   <v>       0.73440946       0.26724529       0.02448096 </v>
   <v>       0.48920012       0.51364133       0.74713400 </v>
   <v>       0.25243639       0.25223414       0.50095599 </v>
   <v>       0.25869406       0.26317440       0.99976281 </v>
   <v>       0.24054577       0.21890883       0.25380132 </v>
   <v>       0.50226977       0.00423922       0.75152683 </v>
   <v>       0.76077414       0.24041532       0.73529898 </v>
   <v>       0.25686957       0.74457386       0.99797460 </v>
   <v>       0.75006186       0.74523557       0.00040851 </v>
   <v>       0.99283337       0.53168465       0.25236608 </v>
   <v>       0.74122935       0.21684107       0.25232572 </v>
   <v>       0.49098225       0.53163247       0.25156498 </v>
   <v>       0.25058770       0.75164736       0.50320040 </v>
   <v>       0.08513288       0.15756068       0.25752680 </v>
   <v>       0.12386651       0.12608801       0.75015298 </v>
   <v>       0.74043632       0.74982415       0.12687778 </v>
   <v>       0.58632101       0.15740722       0.25562597 </v>
   <v>       0.62205845       0.16732473       0.77180468 </v>
   <v>       0.60309200       0.65410726       0.25560769 </v>
   <v>       0.62821147       0.62120883       0.75206470 </v>
   <v>       0.25181373       0.28733538       0.14559650 </v>
   <v>       0.38361995       0.37077790       0.75416545 </v>
   <v>       0.39567466       0.85438227       0.24126276 </v>
   <v>       0.37934435       0.87519933       0.74857212 </v>
   <v>       0.27139508       0.73142152       0.87447127 </v>
   <v>       0.89828982       0.85769337       0.23437454 </v>
   <v>       0.88207344       0.87569723       0.75774292 </v>
   <v>       0.35197012       0.09700882       0.24389791 </v>
   <v>       0.37208760       0.12359282       0.74734921 </v>
   <v>       0.33801928       0.59875456       0.24843518 </v>
   <v>       0.87512720       0.12185373       0.74432419 </v>
   <v>       0.87723538       0.62725477       0.74978071 </v>
   <v>       0.37688575       0.88053842       0.51201733 </v>
   <v>       0.12392613       0.37471656       0.75120571 </v>
   <v>       0.14401018       0.90396084       0.25022396 </v>
   <v>       0.12679206       0.87952912       0.77057723 </v>
   <v>       0.77013030       0.27308297       0.36159772 </v>
   <v>       0.37110240       0.62605998       0.73095349 </v>
   <v>       0.64606736       0.90104756       0.25347752 </v>
   <v>       0.84440125       0.37864858       0.76413790 </v>
   <v>       0.36762335       0.38736638       0.99837980 </v>
   <v>       0.75031756       0.75030638       0.62692353 </v>
   <v>       0.37949947       0.87943859       0.00183845 </v>
   <v>       0.87391969       0.34318782       0.98917038 </v>
   <v>       0.87287227       0.37831041       0.50097228 </v>
   <v>       0.87414940       0.87255980       0.00517833 </v>
   <v>       0.87499443       0.88056617       0.50633481 </v>
   <v>       0.84146400       0.60070051       0.25204492 </v>
   <v>       0.12848683       0.12268347       0.49401709 </v>
   <v>       0.12864382       0.60552780       0.00347591 </v>
   <v>       0.12720761       0.62065947       0.49391343 </v>
   <v>       0.66732174       0.11890018       0.00115972 </v>
   <v>       0.63226132       0.12489337       0.48341152 </v>
   <v>       0.62820300       0.61603691       0.00531709 </v>
   <v>       0.62753935       0.62093705       0.49319289 </v>
   <v>       0.10011833       0.65766276       0.25338403 </v>
   <v>       0.12338322       0.37308112       0.50141586 </v>
   <v>       0.12471226       0.62693209       0.75428256 </v>
   <v>       0.61556471       0.36804694       0.98648541 </v>
   <v>       0.62529722       0.37193926       0.48850581 </v>
   <v>       0.62181377       0.87177008       0.99485287 </v>
   <v>       0.62348087       0.87524753       0.49937377 </v>
   <v>       0.36904651       0.12963309       0.01259374 </v>
   <v>       0.38038860       0.12886981       0.50135711 </v>
   <v>       0.38606726       0.62716309       0.01457434 </v>
   <v>       0.38273713       0.62464774       0.50633252 </v>
   <v>       0.99880984       0.49866792       0.62428158 </v>
   <v>       0.87900653       0.13022494       0.50364667 </v>
   <v>       0.87757681       0.60823172       0.01020384 </v>
   <v>       0.88118191       0.62449726       0.49351011 </v>
   <v>       0.02472135       0.03522805       0.10641811 </v>
   <v>       0.01141845       0.99458028       0.62834679 </v>
   <v>       0.00325668       0.47447544       0.13887191 </v>
   <v>       0.12174461       0.87561630       0.49253138 </v>
   <v>       0.51445240       0.00439995       0.12470446 </v>
   <v>       0.52304613       0.01535047       0.62696780 </v>
   <v>       0.50920937       0.46839476       0.14078666 </v>
   <v>       0.52793358       0.48092751       0.62836477 </v>
   <v>       0.98564960       0.99721131       0.37144390 </v>
   <v>       0.49858032       0.01458823       0.87877130 </v>
   <v>       0.00673869       0.47051349       0.36203076 </v>
   <v>       0.99928307       0.49640781       0.87887647 </v>
   <v>       0.48856508       0.99194717       0.37440331 </v>
   <v>       0.26176544       0.27768691       0.36359577 </v>
   <v>       0.49630800       0.47411751       0.36284413 </v>
   <v>       0.49724136       0.50952730       0.87318639 </v>
   <v>       0.73164924       0.25749126       0.61918579 </v>
   <v>       0.24455161       0.23707182       0.87894448 </v>
   <v>       0.26268623       0.75841681       0.37435295 </v>
   <v>       0.63283678       0.88207888       0.75639582 </v>
   <v>       0.75651260       0.74186108       0.87758247 </v>
   <v>       0.98750606       0.03992634       0.88709116 </v>
   <v>       0.76279352       0.76270194       0.37311272 </v>
   <v>       0.11075040       0.34624492       0.00315914 </v>
   <v>       0.13318382       0.86992657       0.98578532 </v>
   <v>       0.24690804       0.25071443       0.62664134 </v>
   <v>       0.24010101       0.75357289       0.12511916 </v>
   <v>       0.22949336       0.76120463       0.62715469 </v>
   <v>       0.75250192       0.29581788       0.14555496 </v>
   <v>       0.37554225       0.37982407       0.50636081 </v>
   <v>       0.85112309       0.09623669       0.23604180 </v>
  </varray>
 </structure>
 <calculation>
  <scstep>
   <time name="dav">  304.88  304.87</time>
   <time name="total">  308.63  308.75</time>
   <energy>
    <i name="alphaZ">   5597.06355881 </i>
    <i name="ewald"> -61867.14135611 </i>
    <i name="hartreedc"> -17681.92930132 </i>
    <i name="XCdc">   3185.51546200 </i>
    <i name="pawpsdc"> 115081.64131583 </i>
    <i name="pawaedc">-114285.87889520 </i>
    <i name="eentropy">     -0.00000000 </i>
    <i name="bandstr">  -7136.99391324 </i>
    <i name="atom">  76050.17612637 </i>
    <i name="e_fr_energy">  -1057.54700286 </i>
    <i name="e_wo_entrp">  -1057.54700286 </i>
    <i name="e_0_energy">  -1057.54700286 </i>
   </energy>
  </scstep>
  <scstep>
   <time name="diag">   33.32   33.34</time>
   <time name="diis">   30.66   30.68</time>
   <time name="orth">   18.91   18.91</time>
   <time name="total">   86.63   86.70</time>
   <energy>
    <i name="e_fr_energy">  -1057.54700203 </i>
    <i name="e_wo_entrp">  -1057.54700203 </i>
    <i name="e_0_energy">  -1057.54700203 </i>
   </energy>
  </scstep>
  <scstep>
   <time name="diag">   33.33   33.36</time>
   <time name="diis">   29.77   29.80</time>
   <time name="orth">   18.91   18.93</time>
   <time name="total">   85.71   85.88</time>
   <energy>
    <i name="e_fr_energy">  -1057.54700223 </i>
    <i name="e_wo_entrp">  -1057.54700223 </i>
    <i name="e_0_energy">  -1057.54700223 </i>
   </energy>
  </scstep>
  <scstep>
   <time name="diag">   33.26   33.28</time>
   <time name="diis">   24.97   24.98</time>
   <time name="orth">   18.94   18.94</time>
   <time name="total">   80.85   80.94</time>
   <energy>
    <i name="e_fr_energy">  -1057.54700232 </i>
    <i name="e_wo_entrp">  -1057.54700232 </i>
    <i name="e_0_energy">  -1057.54700232 </i>
   </energy>
  </scstep>
  <scstep>
   <time name="diag">   33.30   33.31</time>
   <time name="diis">   24.58   24.61</time>
   <time name="orth">   18.92   18.93</time>
   <time name="total">   80.52   80.65</time>
   <energy>
    <i name="e_fr_energy">  -1057.54700246 </i>
    <i name="e_wo_entrp">  -1057.54700246 </i>
    <i name="e_0_energy">  -1057.54700246 </i>
   </energy>
  </scstep>
  <scstep>
   <time name="diag">   33.37   33.37</time>
   <time name="diis">   23.54   23.56</time>
   <time name="orth">   18.93   18.93</time>
   <time name="total">   79.54   79.66</time>
   <energy>
    <i name="e_fr_energy">  -1057.54700253 </i>
    <i name="e_wo_entrp">  -1057.54700253 </i>
    <i name="e_0_energy">  -1057.54700253 </i>
   </energy>
  </scstep>
  <scstep>
   <time name="diag">   33.31   33.35</time>
   <time name="diis">   23.13   23.14</time>
   <time name="orth">   18.94   18.94</time>
   <time name="total">   79.12   79.22</time>
   <energy>
    <i name="e_fr_energy">  -1057.54700257 </i>
    <i name="e_wo_entrp">  -1057.54700257 </i>
    <i name="e_0_energy">  -1057.54700257 </i>
   </energy>
  </scstep>
  <scstep>
   <time name="diag">   33.35   33.36</time>
   <time name="diis">   22.59   22.61</time>
   <time name="orth">   18.93   18.94</time>
   <time name="total">   75.44   75.60</time>
   <energy>
    <i name="alphaZ">   5597.06355881 </i>
    <i name="ewald"> -61867.14135611 </i>
    <i name="hartreedc"> -17681.92091058 </i>
    <i name="XCdc">   3185.51540296 </i>
    <i name="pawpsdc"> 115081.65140132 </i>
    <i name="pawaedc">-114285.88014500 </i>
    <i name="eentropy">     -0.00000000 </i>
    <i name="bandstr">  -7137.01108036 </i>
    <i name="atom">  76050.17612637 </i>
    <i name="e_fr_energy">  -1057.54700259 </i>
    <i name="e_wo_entrp">  -1057.54700259 </i>
    <i name="e_0_energy">  -1057.54700259 </i>
   </energy>
  </scstep>
  <structure>
   <crystal>
    <varray name="basis" >
     <v>      11.27487441      -0.02181120      -0.00005599 </v>
     <v>      -0.02129481      11.30279285       0.01434340 </v>
     <v>      -0.00001202       0.02020218      15.78953170 </v>
    </varray>
    <i name="volume">   2012.16894790 </i>
    <varray name="rec_basis" >
     <v>       0.08869311       0.00016710      -0.00000015 </v>
     <v>       0.00017115       0.08847417      -0.00011320 </v>
     <v>       0.00000016      -0.00008037       0.06333320 </v>
    </varray>
   </crystal>
   <varray name="positions" >
    <v>       0.00024366       0.25336526       0.12700083 </v>
    <v>       0.01294926       0.24999097       0.62236779 </v>
    <v>       0.00586571       0.74405171       0.11620908 </v>
    <v>       0.99951166       0.74799300       0.62539266 </v>
    <v>       0.48037458       0.24485839       0.12640900 </v>
    <v>       0.49332159       0.24775790       0.62720406 </v>
    <v>       0.50489493       0.75599042       0.11818178 </v>
    <v>       0.50361092       0.75664765       0.62562947 </v>
    <v>       0.00323526       0.24812045       0.39009802 </v>
    <v>       0.00751726       0.26158113       0.86544349 </v>
    <v>       0.00085941       0.75951931       0.38265422 </v>
    <v>       0.00289212       0.73701684       0.87163624 </v>
    <v>       0.49263899       0.24922349       0.38783627 </v>
    <v>       0.48419748       0.24749956       0.87744201 </v>
    <v>       0.49991399       0.75859191       0.38581352 </v>
    <v>       0.50400363       0.75238666       0.87276371 </v>
    <v>       0.25677812       0.98146840       0.12045484 </v>
    <v>       0.25248398       0.00148357       0.62622547 </v>
    <v>       0.25262445       0.50669678       0.11685559 </v>
    <v>       0.24279421       0.49976290       0.62424260 </v>
    <v>       0.74962539       0.97793557       0.12002451 </v>
    <v>       0.75434265       0.99041554       0.62356469 </v>
    <v>       0.74284817       0.51666528       0.12398217 </v>
    <v>       0.75861153       0.50793618       0.62460459 </v>
    <v>       0.25411247       0.99223527       0.38547215 </v>
    <v>       0.26258026       0.99650670       0.87024553 </v>
    <v>       0.25545822       0.50381808       0.38869826 </v>
    <v>       0.24877472       0.50331479       0.86822146 </v>
    <v>       0.75317007       0.99121179       0.38417581 </v>
    <v>       0.74697593       0.98808068       0.87421867 </v>
    <v>       0.75030547       0.50663955       0.38612202 </v>
    <v>       0.75659686       0.51176889       0.87805659 </v>
    <v>       0.00249881       0.49933207       0.50002773 </v>
    <v>       0.50310569       0.99654797       0.99999230 </v>
    <v>       0.50052227       0.50266426       0.99576337 </v>
    <v>       0.50216687       0.00131672       0.50424560 </v>
    <v>       0.74958602       0.75618796       0.25155571 </v>
    <v>       0.75024588       0.25219584       0.49663448 </v>
    <v>       0.99970233       0.00018070       0.25041500 </v>
    <v>       0.00319060       0.99822885       0.50392935 </v>
    <v>       0.25234382       0.24966246       0.74938171 </v>
    <v>       0.50350433       0.49768171       0.50567850 </v>
    <v>       0.00170184       0.48900452       0.00019984 </v>
    <v>       0.00262876       0.00173738       0.75560244 </v>
    <v>       0.24954375       0.75308083       0.25077997 </v>
    <v>       0.49867437       0.99747983       0.25196845 </v>
    <v>       0.75126129       0.74761516       0.75118689 </v>
    <v>       0.25021532       0.75184391       0.74972867 </v>
    <v>       0.00532462       0.97303205       0.99598046 </v>
    <v>       0.75189566       0.75061879       0.50043650 </v>
    <v>       0.00005346       0.50275183       0.74986363 </v>
    <v>       0.73440946       0.26724529       0.02448096 </v>
    <v>       0.48920012       0.51364133       0.74713400 </v>
    <v>       0.25243639       0.25223414       0.50095599 </v>
    <v>       0.25869406       0.26317440       0.99976281 </v>
    <v>       0.24054577       0.21890883       0.25380132 </v>
    <v>       0.50226977       0.00423922       0.75152683 </v>
    <v>       0.76077414       0.24041532       0.73529898 </v>
    <v>       0.25686957       0.74457386       0.99797460 </v>
    <v>       0.75006186       0.74523557       0.00040851 </v>
    <v>       0.99283337       0.53168465       0.25236608 </v>
    <v>       0.74122935       0.21684107       0.25232572 </v>
    <v>       0.49098225       0.53163247       0.25156498 </v>
    <v>       0.25058770       0.75164736       0.50320040 </v>
    <v>       0.08513288       0.15756068       0.25752680 </v>
    <v>       0.12386651       0.12608801       0.75015298 </v>
    <v>       0.74043632       0.74982415       0.12687778 </v>
    <v>       0.58632101       0.15740722       0.25562597 </v>
    <v>       0.62205845       0.16732473       0.77180468 </v>
    <v>       0.60309200       0.65410726       0.25560769 </v>
    <v>       0.62821147       0.62120883       0.75206470 </v>
    <v>       0.25181373       0.28733538       0.14559650 </v>
    <v>       0.38361995       0.37077790       0.75416545 </v>
    <v>       0.39567466       0.85438227       0.24126276 </v>
    <v>       0.37934435       0.87519933       0.74857212 </v>
    <v>       0.27139508       0.73142152       0.87447127 </v>
    <v>       0.89828982       0.85769337       0.23437454 </v>
    <v>       0.88207344       0.87569723       0.75774292 </v>
    <v>       0.35197012       0.09700882       0.24389791 </v>
    <v>       0.37208760       0.12359282       0.74734921 </v>
    <v>       0.33801928       0.59875456       0.24843518 </v>
    <v>       0.87512720       0.12185373       0.74432419 </v>
    <v>       0.87723538       0.62725477       0.74978071 </v>
    <v>       0.37688575       0.88053842       0.51201733 </v>
    <v>       0.12392613       0.37471656       0.75120571 </v>
    <v>       0.14401018       0.90396084       0.25022396 </v>
    <v>       0.12679206       0.87952912       0.77057723 </v>
    <v>       0.77013030       0.27308297       0.36159772 </v>
    <v>       0.37110240       0.62605998       0.73095349 </v>
    <v>       0.64606736       0.90104756       0.25347752 </v>
    <v>       0.84440125       0.37864858       0.76413790 </v>
    <v>       0.36762335       0.38736638       0.99837980 </v>
    <v>       0.75031756       0.75030638       0.62692353 </v>
    <v>       0.37949947       0.87943859       0.00183845 </v>
    <v>       0.87391969       0.34318782       0.98917038 </v>
    <v>       0.87287227       0.37831041       0.50097228 </v>
    <v>       0.87414940       0.87255980       0.00517833 </v>
    <v>       0.87499443       0.88056617       0.50633481 </v>
    <v>       0.84146400       0.60070051       0.25204492 </v>
    <v>       0.12848683       0.12268347       0.49401709 </v>
    <v>       0.12864382       0.60552780       0.00347591 </v>
    <v>       0.12720761       0.62065947       0.49391343 </v>
    <v>       0.66732174       0.11890018       0.00115972 </v>
    <v>       0.63226132       0.12489337       0.48341152 </v>
    <v>       0.62820300       0.61603691       0.00531709 </v>
    <v>       0.62753935       0.62093705       0.49319289 </v>
    <v>       0.10011833       0.65766276       0.25338403 </v>
    <v>       0.12338322       0.37308112       0.50141586 </v>
    <v>       0.12471226       0.62693209       0.75428256 </v>
    <v>       0.61556471       0.36804694       0.98648541 </v>
    <v>       0.62529722       0.37193926       0.48850581 </v>
    <v>       0.62181377       0.87177008       0.99485287 </v>
    <v>       0.62348087       0.87524753       0.49937377 </v>
    <v>       0.36904651       0.12963309       0.01259374 </v>
    <v>       0.38038860       0.12886981       0.50135711 </v>
    <v>       0.38606726       0.62716309       0.01457434 </v>
    <v>       0.38273713       0.62464774       0.50633252 </v>
    <v>       0.99880984       0.49866792       0.62428158 </v>
    <v>       0.87900653       0.13022494       0.50364667 </v>
    <v>       0.87757681       0.60823172       0.01020384 </v>
    <v>       0.88118191       0.62449726       0.49351011 </v>
    <v>       0.02472135       0.03522805       0.10641811 </v>
    <v>       0.01141845       0.99458028       0.62834679 </v>
    <v>       0.00325668       0.47447544       0.13887191 </v>
    <v>       0.12174461       0.87561630       0.49253138 </v>
    <v>       0.51445240       0.00439995       0.12470446 </v>
    <v>       0.52304613       0.01535047       0.62696780 </v>
    <v>       0.50920937       0.46839476       0.14078666 </v>
    <v>       0.52793358       0.48092751       0.62836477 </v>
    <v>       0.98564960       0.99721131       0.37144390 </v>
    <v>       0.49858032       0.01458823       0.87877130 </v>
    <v>       0.00673869       0.47051349       0.36203076 </v>
    <v>       0.99928307       0.49640781       0.87887647 </v>
    <v>       0.48856508       0.99194717       0.37440331 </v>
    <v>       0.26176544       0.27768691       0.36359577 </v>
    <v>       0.49630800       0.47411751       0.36284413 </v>
    <v>       0.49724136       0.50952730       0.87318639 </v>
    <v>       0.73164924       0.25749126       0.61918579 </v>
    <v>       0.24455161       0.23707182       0.87894448 </v>
    <v>       0.26268623       0.75841681       0.37435295 </v>
    <v>       0.63283678       0.88207888       0.75639582 </v>
    <v>       0.75651260       0.74186108       0.87758247 </v>
    <v>       0.98750606       0.03992634       0.88709116 </v>
    <v>       0.76279352       0.76270194       0.37311272 </v>
    <v>       0.11075040       0.34624492       0.00315914 </v>
    <v>       0.13318382       0.86992657       0.98578532 </v>
    <v>       0.24690804       0.25071443       0.62664134 </v>
    <v>       0.24010101       0.75357289       0.12511916 </v>
    <v>       0.22949336       0.76120463       0.62715469 </v>
    <v>       0.75250192       0.29581788       0.14555496 </v>
    <v>       0.37554225       0.37982407       0.50636081 </v>
    <v>       0.85112309       0.09623669       0.23604180 </v>
   </varray>
  </structure>
  <varray name="forces" >
   <v>      -0.02913658       0.02247897      -0.01036136 </v>
   <v>       0.00208600       0.01616138       0.00696854 </v>
   <v>      -0.01549271       0.01876746       0.00031449 </v>
   <v>      -0.00333705      -0.00664417      -0.01675758 </v>
   <v>       0.05278695      -0.00346710      -0.01078484 </v>
   <v>      -0.00130119       0.01483593      -0.00770335 </v>
   <v>      -0.00365388       0.00836574       0.01500422 </v>
   <v>       0.00259773       0.00857693      -0.02659347 </v>
   <v>       0.01123051       0.00509800      -0.01468970 </v>
   <v>       0.00245761       0.03051611      -0.01458003 </v>
   <v>      -0.01029149       0.01041050       0.03687516 </v>
   <v>      -0.01113639       0.01377885      -0.00641275 </v>
   <v>      -0.00169190       0.00076044      -0.02023800 </v>
   <v>       0.00671917      -0.00925289      -0.02346307 </v>
   <v>       0.01428889      -0.02080388      -0.00116130 </v>
   <v>      -0.00966044       0.00409104       0.01228453 </v>
   <v>       0.00682965      -0.01613883       0.00424652 </v>
   <v>       0.01386694       0.00147802       0.00171715 </v>
   <v>      -0.02815665      -0.00499106       0.01333396 </v>
   <v>      -0.01191037       0.00559128      -0.01187501 </v>
   <v>      -0.00479383       0.00139873       0.01051919 </v>
   <v>       0.01488828      -0.01760873       0.00028383 </v>
   <v>      -0.02491029       0.02761379       0.01384277 </v>
   <v>      -0.00640903      -0.00737540      -0.00591412 </v>
   <v>       0.02098277      -0.00527692      -0.00372105 </v>
   <v>      -0.00189498       0.00519535       0.02457917 </v>
   <v>       0.00250245       0.01013378       0.00682217 </v>
   <v>      -0.01233616      -0.00106981       0.02186996 </v>
   <v>      -0.00499034      -0.00367832      -0.00609962 </v>
   <v>       0.00047872       0.01411944      -0.00954429 </v>
   <v>      -0.00931173       0.00028166      -0.00658380 </v>
   <v>      -0.00826096      -0.00910743       0.00646633 </v>
   <v>       0.00765294       0.02342037       0.02921297 </v>
   <v>      -0.02409009      -0.01966247       0.00006453 </v>
   <v>      -0.02474096      -0.02236337       0.00312221 </v>
   <v>      -0.00047574      -0.01793877      -0.01296074 </v>
   <v>      -0.03076399      -0.05181027       0.00048757 </v>
   <v>      -0.02330144       0.04904336       0.00131985 </v>
   <v>       0.01145100       0.01541142      -0.00820338 </v>
   <v>      -0.01804060      -0.03750521      -0.03049519 </v>
   <v>      -0.03204593      -0.02379910       0.00607969 </v>
   <v>      -0.02248774      -0.03635926      -0.00182457 </v>
   <v>       0.02708626       0.00107171      -0.00859294 </v>
   <v>       0.01706043      -0.04683790      -0.00027991 </v>
   <v>       0.01095426       0.00729659      -0.02108791 </v>
   <v>       0.02510395      -0.00745965      -0.01958487 </v>
   <v>       0.04157792       0.03240976       0.01315631 </v>
   <v>      -0.02787314      -0.00642474      -0.04689151 </v>
   <v>       0.00260448      -0.01293686      -0.00734678 </v>
   <v>       0.02745794       0.01048337       0.01853162 </v>
   <v>      -0.01523297      -0.01319201      -0.02636496 </v>
   <v>      -0.00331228       0.01555970      -0.03078516 </v>
   <v>       0.03276987      -0.02134622       0.02445109 </v>
   <v>       0.01066213       0.01672361      -0.01055656 </v>
   <v>       0.00112675      -0.01067381       0.03758371 </v>
   <v>      -0.00189677       0.02278468      -0.04410530 </v>
   <v>       0.01675525       0.06675034      -0.02874205 </v>
   <v>      -0.02035142      -0.04371931       0.00265892 </v>
   <v>       0.02153903       0.00088787      -0.00869075 </v>
   <v>       0.00085089       0.00087926       0.02424011 </v>
   <v>       0.01102381      -0.02360792      -0.02032593 </v>
   <v>       0.03117235       0.00120343      -0.00552640 </v>
   <v>       0.00230520      -0.00921754      -0.01374252 </v>
   <v>       0.02293764      -0.01219499       0.02448248 </v>
   <v>       0.03325430       0.00568059      -0.05310063 </v>
   <v>       0.00763433      -0.01784180       0.00977978 </v>
   <v>       0.00118247       0.00970546      -0.01089168 </v>
   <v>      -0.01283064      -0.04127673       0.00163208 </v>
   <v>       0.02966407       0.00202789       0.03479068 </v>
   <v>      -0.00186114       0.01820299      -0.02672018 </v>
   <v>      -0.00762289       0.00208813       0.01347827 </v>
   <v>       0.01395266      -0.03394011      -0.07025545 </v>
   <v>      -0.01779460       0.00716499       0.01196953 </v>
   <v>       0.00839474      -0.00309355      -0.00106258 </v>
   <v>      -0.02152702      -0.02580564      -0.01052899 </v>
   <v>       0.00171689      -0.00519264       0.01050054 </v>
   <v>       0.03453768       0.01645399       0.01915265 </v>
   <v>      -0.02015170      -0.02396167      -0.00124617 </v>
   <v>      -0.00193617      -0.01440257       0.02598567 </v>
   <v>       0.00898993      -0.01413742       0.01416855 </v>
   <v>      -0.00933322      -0.00270744       0.00278252 </v>
   <v>      -0.01384506       0.02809283      -0.03198063 </v>
   <v>       0.03542895      -0.02505969      -0.00674258 </v>
   <v>      -0.01380378       0.00430241       0.00213755 </v>
   <v>       0.02140958      -0.01726586       0.03678732 </v>
   <v>      -0.01890548       0.00744570       0.00681342 </v>
   <v>      -0.00530178       0.01553127      -0.00894325 </v>
   <v>       0.02102256       0.02488506       0.02265658 </v>
   <v>       0.00892940       0.00873999       0.00877172 </v>
   <v>       0.01134357      -0.00792392       0.00181784 </v>
   <v>      -0.00040326       0.01634982       0.00907101 </v>
   <v>       0.03240062      -0.00819942      -0.04249823 </v>
   <v>      -0.01863273       0.01036338      -0.01263277 </v>
   <v>      -0.00917659      -0.01092544      -0.00730901 </v>
   <v>       0.01939602       0.00088278       0.01713916 </v>
   <v>       0.03847834       0.00217310       0.00585558 </v>
   <v>      -0.02570318       0.00089949      -0.00922058 </v>
   <v>       0.01954154      -0.00013420      -0.02114934 </v>
   <v>       0.00701746      -0.00473400       0.00000262 </v>
   <v>       0.01929597       0.01680049      -0.02675903 </v>
   <v>      -0.01608615       0.02471574      -0.02314307 </v>
   <v>       0.01975631       0.01173490      -0.00142243 </v>
   <v>      -0.02569788      -0.00900708       0.02074277 </v>
   <v>      -0.00267260      -0.02005517      -0.01135794 </v>
   <v>      -0.01750461      -0.00036594      -0.00350295 </v>
   <v>       0.00025421       0.01640198       0.01659781 </v>
   <v>      -0.03821750       0.00987675       0.03238937 </v>
   <v>      -0.03305865      -0.01127157      -0.01290065 </v>
   <v>       0.01039265       0.02878032       0.01455983 </v>
   <v>      -0.01336736      -0.01259045       0.02726428 </v>
   <v>      -0.01702688      -0.00422653       0.00196773 </v>
   <v>       0.00617191      -0.00836469      -0.01117854 </v>
   <v>       0.02095705       0.00362342       0.01404691 </v>
   <v>       0.00091059       0.00889885      -0.02133866 </v>
   <v>       0.00815935      -0.01065021      -0.03757264 </v>
   <v>       0.01143425      -0.00693770      -0.00820711 </v>
   <v>      -0.02718488       0.01545995       0.01429799 </v>
   <v>       0.00134451      -0.02961629       0.00781393 </v>
   <v>      -0.03348008       0.03126842      -0.00012491 </v>
   <v>       0.00317078       0.00228298       0.03114046 </v>
   <v>      -0.02245086       0.01399495       0.00029898 </v>
   <v>      -0.03492023      -0.02814526      -0.00277205 </v>
   <v>       0.04019157       0.01740936       0.07555328 </v>
   <v>       0.01509416      -0.02964780       0.02089214 </v>
   <v>       0.01466816       0.01199555      -0.00729068 </v>
   <v>       0.01783423      -0.02442213      -0.00178817 </v>
   <v>      -0.00707620       0.02105150       0.00749099 </v>
   <v>       0.00356129       0.01387303       0.03989543 </v>
   <v>      -0.00596048      -0.01641135      -0.03416352 </v>
   <v>       0.01125376      -0.00312240       0.00512177 </v>
   <v>      -0.01116819      -0.01951510       0.03547042 </v>
   <v>      -0.01951623       0.02675588       0.00750501 </v>
   <v>      -0.01917159       0.02158332       0.00644471 </v>
   <v>       0.00954137       0.00212596       0.04169900 </v>
   <v>       0.00295368       0.04370863       0.00747569 </v>
   <v>      -0.00939812       0.04540368      -0.02196921 </v>
   <v>      -0.01893207      -0.02140128       0.04960832 </v>
   <v>      -0.00723372      -0.00435799       0.01984266 </v>
   <v>       0.03527674      -0.01122158      -0.00357825 </v>
   <v>       0.00077821      -0.02272769      -0.02924517 </v>
   <v>      -0.01656332      -0.02138734      -0.00556872 </v>
   <v>      -0.00311608      -0.02028782      -0.05137458 </v>
   <v>       0.01225346      -0.00097004       0.00691420 </v>
   <v>      -0.01086158      -0.02713143      -0.00251710 </v>
   <v>      -0.00295640      -0.01640286       0.02058511 </v>
   <v>      -0.04493594       0.02796981       0.00286229 </v>
   <v>      -0.02452550      -0.00046038      -0.02991332 </v>
   <v>      -0.01657942       0.01579558       0.03368681 </v>
   <v>       0.02099215       0.01903176       0.02690265 </v>
   <v>       0.00631549      -0.01883521      -0.01587029 </v>
   <v>       0.03586211       0.03657103       0.00452677 </v>
   <v>      -0.01474608       0.02691671       0.01102239 </v>
  </varray>
  <varray name="stress" >
   <v>       0.07603347      -0.00207698      -0.12323658 </v>
   <v>      -0.00207702       0.36314673       0.22821426 </v>
   <v>      -0.12323664       0.22821429      -0.32585220 </v>
  </varray>
  <energy>
   <i name="e_fr_energy">  -1057.54700259 </i>
   <i name="e_wo_entrp">  -1057.54700259 </i>
   <i name="e_0_energy">     -0.00000000 </i>
  </energy>
  <time name="totalsc"> 1028.76 1031.61</time>
 </calculation>
 <calculation>
  <scstep>
   <time name="dav">  284.91  284.93</time>
   <time name="total">  288.65  288.73</time>
   <energy>
    <i name="alphaZ">   5596.81089675 </i>
    <i name="ewald"> -61867.21655933 </i>
    <i name="hartreedc"> -17680.59543170 </i>
    <i name="XCdc">   3185.45119529 </i>
    <i name="pawpsdc"> 115081.65210729 </i>
    <i name="pawaedc">-114285.88056084 </i>
    <i name="eentropy">     -0.00000000 </i>
    <i name="bandstr">  -7137.94345375 </i>
    <i name="atom">  76050.17612637 </i>
    <i name="e_fr_energy">  -1057.54567992 </i>
    <i name="e_wo_entrp">  -1057.54567992 </i>
    <i name="e_0_energy">  -1057.54567992 </i>
   </energy>
  </scstep>
  <scstep>
   <time name="diag">   33.29   33.30</time>
   <time name="diis">   52.20   52.20</time>
   <time name="orth">   18.93   18.92</time>
   <time name="total">  108.19  108.26</time>
   <energy>
    <i name="e_fr_energy">  -1057.55254546 </i>
    <i name="e_wo_entrp">  -1057.55254546 </i>
    <i name="e_0_energy">  -1057.55254546 </i>
   </energy>
  </scstep>
  <scstep>
   <time name="diag">   33.33   33.33</time>
   <time name="diis">   53.62   53.67</time>
   <time name="orth">   18.89   18.90</time>
   <time name="total">  109.64  109.79</time>
   <energy>
    <i name="e_fr_energy">  -1057.55312144 </i>
    <i name="e_wo_entrp">  -1057.55312144 </i>
    <i name="e_0_energy">  -1057.55312144 </i>
   </energy>
  </scstep>
  <scstep>
   <time name="diag">   33.34   33.36</time>
   <time name="diis">   45.18   45.18</time>
   <time name="orth">   18.95   18.95</time>
   <time name="total">  101.25  101.29</time>
   <energy>
    <i name="e_fr_energy">  -1057.55290157 </i>
    <i name="e_wo_entrp">  -1057.55290157 </i>
    <i name="e_0_energy">  -1057.55290157 </i>
   </energy>
  </scstep>
  <scstep>
   <time name="diag">   33.33   33.34</time>
   <time name="diis">   40.74   40.78</time>
   <time name="orth">   18.89   18.90</time>
   <time name="total">   96.75   96.90</time>
   <energy>
    <i name="e_fr_energy">  -1057.55283585 </i>
    <i name="e_wo_entrp">  -1057.55283585 </i>
    <i name="e_0_energy">  -1057.55283585 </i>
   </energy>
  </scstep>
  <scstep>
   <time name="diag">   33.31   33.32</time>
   <time name="diis">   32.51   32.53</time>
   <time name="orth">   18.92   18.92</time>
   <time name="total">   88.52   88.62</time>
   <energy>
    <i name="e_fr_energy">  -1057.55283822 </i>
    <i name="e_wo_entrp">  -1057.55283822 </i>
    <i name="e_0_energy">  -1057.55283822 </i>
   </energy>
  </scstep>
  <scstep>
   <time name="diag">   33.27   33.27</time>
   <time name="diis">   31.52   31.54</time>
   <time name="orth">   18.89   18.88</time>
   <time name="total">   87.43   87.52</time>
   <energy>
    <i name="e_fr_energy">  -1057.55283947 </i>
    <i name="e_wo_entrp">  -1057.55283947 </i>
    <i name="e_0_energy">  -1057.55283947 </i>
   </energy>
  </scstep>
  <scstep>
   <time name="diag">   33.29   33.28</time>
   <time name="diis">   31.21   31.21</time>
   <time name="orth">   18.91   18.91</time>
   <time name="total">   83.97   84.08</time>
   <energy>
    <i name="alphaZ">   5596.81089675 </i>
    <i name="ewald"> -61867.21655933 </i>
    <i name="hartreedc"> -17681.29386928 </i>
    <i name="XCdc">   3185.49690223 </i>
    <i name="pawpsdc"> 115066.60359990 </i>
    <i name="pawaedc">-114270.82267120 </i>
    <i name="eentropy">     -0.00000000 </i>
    <i name="bandstr">  -7137.30726476 </i>
    <i name="atom">  76050.17612637 </i>
    <i name="e_fr_energy">  -1057.55283931 </i>
    <i name="e_wo_entrp">  -1057.55283931 </i>
    <i name="e_0_energy">  -1057.55283931 </i>
   </energy>
  </scstep>
  <structure>
   <crystal>
    <varray name="basis" >
     <v>      11.27521614      -0.02182370      -0.00061182 </v>
     <v>      -0.02130551      11.30443027       0.01537077 </v>
     <v>      -0.00078766       0.02164143      15.78748270 </v>
    </varray>
    <i name="volume">   2012.25978512 </i>
    <varray name="rec_basis" >
     <v>       0.08869042       0.00016715       0.00000420 </v>
     <v>       0.00017121       0.08846138      -0.00012125 </v>
     <v>       0.00000327      -0.00008612       0.06334144 </v>
    </varray>
   </crystal>
   <varray name="positions" >
    <v>       0.00011917       0.25346103       0.12696909 </v>
    <v>       0.01295832       0.25005993       0.62238902 </v>
    <v>       0.00579957       0.74413168       0.11620996 </v>
    <v>       0.99949733       0.74796470       0.62534149 </v>
    <v>       0.48060041       0.24484408       0.12637606 </v>
    <v>       0.49331614       0.24782126       0.62718046 </v>
    <v>       0.50487937       0.75602601       0.11822759 </v>
    <v>       0.50362210       0.75668443       0.62554818 </v>
    <v>       0.00328336       0.24814238       0.39005312 </v>
    <v>       0.00752802       0.26171148       0.86539883 </v>
    <v>       0.00081546       0.75956346       0.38276685 </v>
    <v>       0.00284458       0.73707559       0.87161660 </v>
    <v>       0.49263176       0.24922683       0.38777444 </v>
    <v>       0.48422615       0.24746025       0.87737036 </v>
    <v>       0.49997496       0.75850324       0.38581005 </v>
    <v>       0.50396233       0.75240398       0.87280122 </v>
    <v>       0.25680721       0.98139955       0.12046788 </v>
    <v>       0.25254333       0.00148999       0.62623071 </v>
    <v>       0.25250393       0.50667517       0.11689634 </v>
    <v>       0.24274330       0.49978673       0.62420629 </v>
    <v>       0.74960489       0.97794144       0.12005664 </v>
    <v>       0.75440621       0.99034050       0.62356563 </v>
    <v>       0.74274181       0.51678287       0.12402435 </v>
    <v>       0.75858405       0.50790468       0.62458655 </v>
    <v>       0.25420221       0.99221294       0.38546080 </v>
    <v>       0.26257220       0.99652872       0.87032061 </v>
    <v>       0.25546900       0.50386131       0.38871907 </v>
    <v>       0.24872192       0.50331001       0.86828829 </v>
    <v>       0.75314869       0.99119608       0.38415719 </v>
    <v>       0.74697810       0.98814100       0.87418945 </v>
    <v>       0.75026563       0.50664071       0.38610190 </v>
    <v>       0.75656144       0.51172992       0.87807638 </v>
    <v>       0.00253174       0.49943194       0.50011690 </v>
    <v>       0.50300246       0.99646385       0.99999257 </v>
    <v>       0.50041622       0.50256858       0.99577300 </v>
    <v>       0.50216469       0.00124022       0.50420607 </v>
    <v>       0.74945397       0.75596656       0.25155740 </v>
    <v>       0.75014657       0.25240497       0.49663832 </v>
    <v>       0.99975145       0.00024662       0.25038988 </v>
    <v>       0.00311310       0.99806879       0.50383632 </v>
    <v>       0.25220651       0.24956058       0.74940038 </v>
    <v>       0.50340781       0.49752635       0.50567307 </v>
    <v>       0.00181774       0.48900937       0.00017358 </v>
    <v>       0.00270138       0.00153761       0.75560176 </v>
    <v>       0.24959068       0.75311218       0.25071551 </v>
    <v>       0.49878172       0.99744830       0.25190864 </v>
    <v>       0.75143946       0.74775377       0.75122696 </v>
    <v>       0.25009601       0.75181652       0.74958542 </v>
    <v>       0.00533566       0.97297689       0.99595806 </v>
    <v>       0.75201323       0.75066366       0.50049308 </v>
    <v>      -0.00001182       0.50269554       0.74978312 </v>
    <v>       0.73439541       0.26731184       0.02438684 </v>
    <v>       0.48934017       0.51355036       0.74720879 </v>
    <v>       0.25248214       0.25230567       0.50092367 </v>
    <v>       0.25869880       0.26312865       0.99987768 </v>
    <v>       0.24053784       0.21900630       0.25366647 </v>
    <v>       0.50234200       0.00452442       0.75143876 </v>
    <v>       0.76068671       0.24022854       0.73530727 </v>
    <v>       0.25696174       0.74457787       0.99794804 </v>
    <v>       0.75006551       0.74523920       0.00048257 </v>
    <v>       0.99288035       0.53158409       0.25230407 </v>
    <v>       0.74136274       0.21684649       0.25230883 </v>
    <v>       0.49099204       0.53159322       0.25152303 </v>
    <v>       0.25068575       0.75159536       0.50327525 </v>
    <v>       0.08527521       0.15758549       0.25736454 </v>
    <v>       0.12389903       0.12601187       0.75018293 </v>
    <v>       0.74044145       0.74986564       0.12684446 </v>
    <v>       0.58626577       0.15723092       0.25563112 </v>
    <v>       0.62218539       0.16733344       0.77191097 </v>
    <v>       0.60308418       0.65418509       0.25552598 </v>
    <v>       0.62817887       0.62121761       0.75210587 </v>
    <v>       0.25187316       0.28719101       0.14538198 </v>
    <v>       0.38354387       0.37080827       0.75420199 </v>
    <v>       0.39571055       0.85436914       0.24125953 </v>
    <v>       0.37925204       0.87508907       0.74854005 </v>
    <v>       0.27140238       0.73139932       0.87450338 </v>
    <v>       0.89843773       0.85776378       0.23443299 </v>
    <v>       0.88198702       0.87559480       0.75773921 </v>
    <v>       0.35196172       0.09694719       0.24397736 </v>
    <v>       0.37212595       0.12353248       0.74739255 </v>
    <v>       0.33797932       0.59874291       0.24844369 </v>
    <v>       0.87506819       0.12197370       0.74422637 </v>
    <v>       0.87738677       0.62714814       0.74976020 </v>
    <v>       0.37682672       0.88055666       0.51202385 </v>
    <v>       0.12401760       0.37464284       0.75131818 </v>
    <v>       0.14392935       0.90399243       0.25024475 </v>
    <v>       0.12676950       0.87959542       0.77054984 </v>
    <v>       0.77022046       0.27318923       0.36166685 </v>
    <v>       0.37114068       0.62609731       0.73098026 </v>
    <v>       0.64611583       0.90101382       0.25348311 </v>
    <v>       0.84439966       0.37871831       0.76416555 </v>
    <v>       0.36776192       0.38733188       0.99824998 </v>
    <v>       0.75023792       0.75035052       0.62688489 </v>
    <v>       0.37946012       0.87939192       0.00181616 </v>
    <v>       0.87400269       0.34319165       0.98922275 </v>
    <v>       0.87303693       0.37831998       0.50099017 </v>
    <v>       0.87403943       0.87256348       0.00515016 </v>
    <v>       0.87507804       0.88056588       0.50627019 </v>
    <v>       0.84149399       0.60068036       0.25204495 </v>
    <v>       0.12856953       0.12275549       0.49393527 </v>
    <v>       0.12857519       0.60563329       0.00340511 </v>
    <v>       0.12729224       0.62070973       0.49390904 </v>
    <v>       0.66721171       0.11886141       0.00122313 </v>
    <v>       0.63224972       0.12480781       0.48337690 </v>
    <v>       0.62812810       0.61603522       0.00530638 </v>
    <v>       0.62754057       0.62100696       0.49324353 </v>
    <v>       0.09995488       0.65770443       0.25348295 </v>
    <v>       0.12324168       0.37303281       0.50137649 </v>
    <v>       0.12475696       0.62705494       0.75432694 </v>
    <v>       0.61550741       0.36799294       0.98656876 </v>
    <v>       0.62522433       0.37192107       0.48851183 </v>
    <v>       0.62184011       0.87173449       0.99481875 </v>
    <v>       0.62357057       0.87526309       0.49941668 </v>
    <v>       0.36905048       0.12967120       0.01252851 </v>
    <v>       0.38042343       0.12882463       0.50124235 </v>
    <v>       0.38611613       0.62713362       0.01454930 </v>
    <v>       0.38262094       0.62471343       0.50637614 </v>
    <v>       0.99881535       0.49854148       0.62430557 </v>
    <v>       0.87886353       0.13035813       0.50364617 </v>
    <v>       0.87759040       0.60824132       0.01029898 </v>
    <v>       0.88108596       0.62455681       0.49351097 </v>
    <v>       0.02457170       0.03510765       0.10640975 </v>
    <v>       0.01159057       0.99465451       0.62857756 </v>
    <v>       0.00332102       0.47434891       0.13893585 </v>
    <v>       0.12180747       0.87566766       0.49250905 </v>
    <v>       0.51452852       0.00429587       0.12469910 </v>
    <v>       0.52301602       0.01544022       0.62699060 </v>
    <v>       0.50922472       0.46845378       0.14090850 </v>
    <v>       0.52790794       0.48085760       0.62826046 </v>
    <v>       0.98569773       0.99719804       0.37145956 </v>
    <v>       0.49853237       0.01450465       0.87887975 </v>
    <v>       0.00665540       0.47062749       0.36205359 </v>
    <v>       0.99920122       0.49649974       0.87889608 </v>
    <v>       0.48860592       0.99195609       0.37453070 </v>
    <v>       0.26177843       0.27787345       0.36361844 </v>
    <v>       0.49626815       0.47431135       0.36277683 </v>
    <v>       0.49716018       0.50943553       0.87333804 </v>
    <v>       0.73161826       0.25747249       0.61924644 </v>
    <v>       0.24470246       0.23702423       0.87893359 </v>
    <v>       0.26268938       0.75831997       0.37426368 </v>
    <v>       0.63276574       0.88198749       0.75637889 </v>
    <v>       0.75649910       0.74177475       0.87742558 </v>
    <v>       0.98755848       0.03992226       0.88711229 </v>
    <v>       0.76274683       0.76258606       0.37310513 </v>
    <v>       0.11073761       0.34617477       0.00322210 </v>
    <v>       0.13299177       0.87004557       0.98579396 </v>
    <v>       0.24680310       0.25071242       0.62654995 </v>
    <v>       0.24003019       0.75363999       0.12522202 </v>
    <v>       0.22958334       0.76128589       0.62723681 </v>
    <v>       0.75252879       0.29573763       0.14550655 </v>
    <v>       0.37569600       0.37998044       0.50637450 </v>
    <v>       0.85106021       0.09635140       0.23607537 </v>
   </varray>
  </structure>
  <varray name="forces" >
   <v>      -0.03244138       0.00790260      -0.01676839 </v>
   <v>      -0.00470527      -0.00085662      -0.00255698 </v>
   <v>      -0.01567932       0.02051186       0.00766617 </v>
   <v>      -0.00366815      -0.00730713      -0.01120052 </v>
   <v>       0.05400789      -0.00668390      -0.01855188 </v>
   <v>      -0.00440946       0.01003572      -0.00778999 </v>
   <v>      -0.00055687       0.00294733       0.00625337 </v>
   <v>       0.00722841       0.00026028      -0.00998608 </v>
   <v>       0.01013133       0.00904372      -0.00443820 </v>
   <v>      -0.00240942       0.01363274      -0.00975672 </v>
   <v>      -0.00443966       0.00045691       0.01036020 </v>
   <v>      -0.00707620       0.00538523       0.00058918 </v>
   <v>      -0.00267843      -0.01023832      -0.01923897 </v>
   <v>      -0.00349959      -0.00867982      -0.01101106 </v>
   <v>       0.01300521      -0.02078717       0.00267431 </v>
   <v>      -0.00972286       0.00074372      -0.00231030 </v>
   <v>      -0.00021113      -0.00670265       0.00486691 </v>
   <v>       0.01226500       0.00662297       0.00064530 </v>
   <v>      -0.02060078      -0.00034087       0.00849000 </v>
   <v>       0.00399952       0.00191973       0.00024245 </v>
   <v>       0.00282179      -0.00016341       0.00657648 </v>
   <v>       0.00863114      -0.00649957      -0.00460531 </v>
   <v>      -0.01938151       0.01502158       0.00682760 </v>
   <v>      -0.01482270      -0.00239749       0.00011823 </v>
   <v>       0.01943631      -0.00436462      -0.00460092 </v>
   <v>       0.00038435      -0.00247699       0.01322084 </v>
   <v>      -0.00480885       0.01877998      -0.00331988 </v>
   <v>      -0.00444724       0.00378798       0.00797249 </v>
   <v>      -0.00989590       0.00052364      -0.00736723 </v>
   <v>      -0.00388312       0.01109240      -0.00094571 </v>
   <v>      -0.00082172       0.00933269      -0.00200802 </v>
   <v>      -0.00577274      -0.00113181       0.00365989 </v>
   <v>      -0.00831686      -0.00206144      -0.00824210 </v>
   <v>       0.00528061      -0.01099033      -0.00083460 </v>
   <v>       0.00706878      -0.00778403       0.00115700 </v>
   <v>       0.01458320      -0.00147553      -0.02266318 </v>
   <v>       0.00096799      -0.02019696       0.00559948 </v>
   <v>       0.01048068      -0.01036716       0.00108075 </v>
   <v>      -0.00583722      -0.03212130      -0.02372553 </v>
   <v>       0.01423667       0.03402877       0.00345016 </v>
   <v>      -0.01589456      -0.01856533       0.01258034 </v>
   <v>       0.02210610       0.05725676       0.00166238 </v>
   <v>      -0.01964550       0.02227006      -0.00537159 </v>
   <v>      -0.01074067       0.02877438      -0.00239059 </v>
   <v>      -0.00804872      -0.01058540       0.03161427 </v>
   <v>       0.00868308      -0.00750505       0.01011457 </v>
   <v>      -0.00493858       0.00244346       0.01111560 </v>
   <v>       0.02628426      -0.00608799       0.02323606 </v>
   <v>      -0.03033469       0.00444913       0.00345345 </v>
   <v>      -0.00872066      -0.01329408       0.00955262 </v>
   <v>      -0.01545747      -0.00885148      -0.00076177 </v>
   <v>       0.00060974      -0.00912226      -0.02115516 </v>
   <v>       0.00157489       0.01187674       0.00871100 </v>
   <v>      -0.00718809      -0.00798305      -0.01452561 </v>
   <v>       0.01650648      -0.00375682       0.02096079 </v>
   <v>       0.02675584       0.01575782      -0.00837510 </v>
   <v>       0.00333712       0.01660973      -0.00696449 </v>
   <v>       0.02364644       0.01705867       0.00516991 </v>
   <v>       0.00172516       0.00480001      -0.02313030 </v>
   <v>      -0.00367997      -0.00409198      -0.00857603 </v>
   <v>       0.00731713      -0.00318248       0.00586299 </v>
   <v>      -0.01049519       0.01434616       0.01100696 </v>
   <v>      -0.01458478       0.00916749      -0.00606805 </v>
   <v>       0.02829266      -0.00693110      -0.00192586 </v>
   <v>       0.01689365       0.00781185      -0.03985893 </v>
   <v>       0.01013269      -0.00713683       0.01508749 </v>
   <v>       0.00176094       0.00781525       0.00119444 </v>
   <v>       0.02620625      -0.01823275       0.00012234 </v>
   <v>      -0.01110724      -0.02278805       0.04298386 </v>
   <v>      -0.01006945       0.00911780      -0.02673531 </v>
   <v>       0.00068382      -0.00777935       0.00713183 </v>
   <v>       0.01823457      -0.02831284      -0.06990629 </v>
   <v>      -0.01057079      -0.00258033       0.00431184 </v>
   <v>       0.01263088       0.00063581      -0.00201256 </v>
   <v>      -0.00620638       0.00214857      -0.00989626 </v>
   <v>      -0.00465922      -0.00145172       0.01496094 </v>
   <v>       0.01258665       0.01144204       0.01592399 </v>
   <v>      -0.00765104      -0.01290432      -0.00264559 </v>
   <v>      -0.00776876       0.00092619       0.01960314 </v>
   <v>       0.00351416      -0.00121097       0.00438687 </v>
   <v>       0.00157887      -0.00714699      -0.00763527 </v>
   <v>       0.01463706      -0.01842213      -0.01628003 </v>
   <v>       0.01508602       0.00188287      -0.01578859 </v>
   <v>      -0.01296669      -0.00321484       0.00541360 </v>
   <v>       0.00589682       0.00192333       0.02667199 </v>
   <v>      -0.00341259       0.00849091       0.00524173 </v>
   <v>      -0.00908663       0.00451543      -0.00098054 </v>
   <v>       0.00660901       0.01723763      -0.00907225 </v>
[...]
       <r>   -17.0511     0.0000    32.0000 </r>
       <r>   -16.8978     0.0000    32.0000 </r>
       <r>   -16.7444     0.0000    32.0000 </r>
       <r>   -16.5910     0.0000    32.0000 </r>
       <r>   -16.4377     0.0000    32.0000 </r>
       <r>   -16.2843     0.0000    32.0000 </r>
       <r>   -16.1310     0.0000    32.0000 </r>
       <r>   -15.9776     0.0000    32.0000 </r>
       <r>   -15.8243     0.0000    32.0000 </r>
       <r>   -15.6709     0.0000    32.0000 </r>
       <r>   -15.5176     0.0000    32.0000 </r>
       <r>   -15.3642     0.0000    32.0000 </r>
       <r>   -15.2109     0.0055    32.0008 </r>
       <r>   -15.0575    11.3975    33.7487 </r>
       <r>   -14.9042    42.1987    40.2199 </r>
       <r>   -14.7508    52.8801    48.3292 </r>
       <r>   -14.5975    36.1758    53.8768 </r>
       <r>   -14.4441    36.8192    59.5231 </r>
       <r>   -14.2908    44.4545    66.3403 </r>
       <r>   -14.1374    74.7467    77.8029 </r>
       <r>   -13.9841    96.1323    92.5450 </r>
       <r>   -13.8307    90.1392   106.3680 </r>
       <r>   -13.6774    72.4494   117.4782 </r>
       <r>   -13.5240    16.4375   119.9990 </r>
       <r>   -13.3707     0.0067   120.0000 </r>
       <r>   -13.2173     0.0000   120.0000 </r>
       <r>   -13.0640     0.0000   120.0000 </r>
       <r>   -12.9106     0.0176   120.0027 </r>
       <r>   -12.7572    13.4413   122.0640 </r>
       <r>   -12.6039    64.0009   131.8786 </r>
       <r>   -12.4505   139.6680   153.2970 </r>
       <r>   -12.2972   118.4650   171.4638 </r>
       <r>   -12.1438   111.7564   188.6019 </r>
       <r>   -11.9905    97.8138   203.6019 </r>
       <r>   -11.8371    71.9101   214.6294 </r>
       <r>   -11.6838     8.9371   215.9999 </r>
       <r>   -11.5304     0.0004   216.0000 </r>
       <r>   -11.3771     0.0000   216.0000 </r>
       <r>   -11.2237     0.0000   216.0000 </r>
       <r>   -11.0704     0.0000   216.0000 </r>
       <r>   -10.9170     0.0000   216.0000 </r>
       <r>   -10.7637     0.0000   216.0000 </r>
       <r>   -10.6103     0.0000   216.0000 </r>
       <r>   -10.4570     0.0000   216.0000 </r>
       <r>   -10.3036     0.0000   216.0000 </r>
       <r>   -10.1503     0.0000   216.0000 </r>
       <r>    -9.9969     0.0000   216.0000 </r>
       <r>    -9.8436     0.0000   216.0000 </r>
       <r>    -9.6902     0.0000   216.0000 </r>
       <r>    -9.5369     0.0000   216.0000 </r>
       <r>    -9.3835     0.0000   216.0000 </r>
       <r>    -9.2302     0.0000   216.0000 </r>
       <r>    -9.0768     0.0000   216.0000 </r>
       <r>    -8.9234     0.0000   216.0000 </r>
       <r>    -8.7701     0.0000   216.0000 </r>
       <r>    -8.6167     0.0000   216.0000 </r>
       <r>    -8.4634     0.0000   216.0000 </r>
       <r>    -8.3100     0.0000   216.0000 </r>
       <r>    -8.1567     0.0000   216.0000 </r>
       <r>    -8.0033     0.0000   216.0000 </r>
       <r>    -7.8500     0.0000   216.0000 </r>
       <r>    -7.6966     0.0000   216.0000 </r>
       <r>    -7.5433     0.0000   216.0000 </r>
       <r>    -7.3899     0.0000   216.0000 </r>
       <r>    -7.2366     0.0000   216.0000 </r>
       <r>    -7.0832     0.0000   216.0000 </r>
       <r>    -6.9299     0.0000   216.0000 </r>
       <r>    -6.7765     0.0000   216.0000 </r>
       <r>    -6.6232     0.0000   216.0000 </r>
       <r>    -6.4698     0.0000   216.0000 </r>
       <r>    -6.3165     0.0000   216.0000 </r>
       <r>    -6.1631     0.0000   216.0000 </r>
       <r>    -6.0098     0.0000   216.0000 </r>
       <r>    -5.8564     0.0000   216.0000 </r>
       <r>    -5.7031     0.0000   216.0000 </r>
       <r>    -5.5497     0.0000   216.0000 </r>
       <r>    -5.3964     0.0000   216.0000 </r>
       <r>    -5.2430     0.0000   216.0000 </r>
       <r>    -5.0896     0.0000   216.0000 </r>
       <r>    -4.9363     0.0000   216.0000 </r>
       <r>    -4.7829     0.0000   216.0000 </r>
       <r>    -4.6296     0.0000   216.0000 </r>
       <r>    -4.4762     0.0000   216.0000 </r>
       <r>    -4.3229     0.0000   216.0000 </r>
       <r>    -4.1695     0.0000   216.0000 </r>
       <r>    -4.0162     0.0000   216.0000 </r>
       <r>    -3.8628     0.0000   216.0000 </r>
       <r>    -3.7095     0.0000   216.0000 </r>
       <r>    -3.5561     0.0000   216.0000 </r>
       <r>    -3.4028     0.0000   216.0000 </r>
       <r>    -3.2494     0.0000   216.0000 </r>
       <r>    -3.0961     0.0000   216.0000 </r>
       <r>    -2.9427     0.0000   216.0000 </r>
       <r>    -2.7894     0.0000   216.0000 </r>
       <r>    -2.6360     0.0000   216.0000 </r>
       <r>    -2.4827     2.7244   216.4178 </r>
       <r>    -2.3293     7.6032   217.5838 </r>
       <r>    -2.1760    18.9370   220.4878 </r>
       <r>    -2.0226    29.0732   224.9462 </r>
       <r>    -1.8693    24.3997   228.6880 </r>
       <r>    -1.7159    31.7239   233.5529 </r>
       <r>    -1.5626    35.1757   238.9472 </r>
       <r>    -1.4092    48.7063   246.4164 </r>
       <r>    -1.2558    59.9383   255.6080 </r>
       <r>    -1.1025    79.2397   267.7596 </r>
       <r>    -0.9491    76.5190   279.4940 </r>
       <r>    -0.7958    74.1739   290.8687 </r>
       <r>    -0.6424    83.1466   303.6194 </r>
       <r>    -0.4891   100.4935   319.0303 </r>
       <r>    -0.3357    86.9925   332.3707 </r>
       <r>    -0.1824    68.6473   342.8979 </r>
       <r>    -0.0290    53.5789   351.1144 </r>
       <r>     0.1243    49.1615   358.6534 </r>
       <r>     0.2777    58.9261   367.6898 </r>
       <r>     0.4310    60.6060   376.9839 </r>
       <r>     0.5844    55.6978   385.5252 </r>
       <r>     0.7377    57.1402   394.2878 </r>
       <r>     0.8911    50.1862   401.9840 </r>
       <r>     1.0444    54.0429   410.2716 </r>
       <r>     1.1978    64.1457   420.1084 </r>
       <r>     1.3511    86.1706   433.3229 </r>
       <r>     1.5045    84.4676   446.2761 </r>
       <r>     1.6578    76.4594   458.0013 </r>
       <r>     1.8112    61.8814   467.4910 </r>
       <r>     1.9645    38.7382   473.4316 </r>
       <r>     2.1179    24.9814   477.2625 </r>
       <r>     2.2713    17.6770   479.9733 </r>
       <r>     2.4246     0.1741   480.0000 </r>
       <r>     2.5780     0.0000   480.0000 </r>
       <r>     2.7313     0.0000   480.0000 </r>
       <r>     2.8847     0.0000   480.0000 </r>
       <r>     3.0380     0.0000   480.0000 </r>
       <r>     3.1914     0.0000   480.0000 </r>
       <r>     3.3447     0.0000   480.0000 </r>
       <r>     3.4981     0.0000   480.0000 </r>
       <r>     3.6514     0.0000   480.0000 </r>
       <r>     3.8048     0.0000   480.0000 </r>
       <r>     3.9581     0.0000   480.0000 </r>
       <r>     4.1115     0.0000   480.0000 </r>
       <r>     4.2648     0.0027   480.0004 </r>
       <r>     4.4182     6.0763   480.9322 </r>
       <r>     4.5715    36.1468   486.4754 </r>
       <r>     4.7249    59.3743   495.5806 </r>
       <r>     4.8782    56.9246   504.3101 </r>
       <r>     5.0316    59.2254   513.3924 </r>
       <r>     5.1849    82.0470   525.9745 </r>
       <r>     5.3383    78.9416   538.0804 </r>
       <r>     5.4916    69.5065   548.7393 </r>
       <r>     5.6450    65.8392   558.8359 </r>
       <r>     5.7983    62.0493   568.3513 </r>
       <r>     5.9517    85.4450   581.4545 </r>
       <r>     6.1051    93.6005   595.8083 </r>
       <r>     6.2584    62.1952   605.3460 </r>
       <r>     6.4118    21.8029   608.6896 </r>
       <r>     6.5651     2.4372   609.0633 </r>
       <r>     6.7185     7.4111   610.1998 </r>
       <r>     6.8718    17.4504   612.8759 </r>
       <r>     7.0252    19.3846   615.8486 </r>
       <r>     7.1785    18.5510   618.6934 </r>
       <r>     7.3319    13.0636   620.6967 </r>
       <r>     7.4852    15.3962   623.0578 </r>
       <r>     7.6386    19.3263   626.0215 </r>
       <r>     7.7919    21.3536   629.2961 </r>
       <r>     7.9453    23.2864   632.8671 </r>
       <r>     8.0986    25.4136   636.7644 </r>
       <r>     8.2520    29.0377   641.2174 </r>
       <r>     8.4053    27.9489   645.5034 </r>
       <r>     8.5587    25.0666   649.3474 </r>
       <r>     8.7120    23.7906   652.9957 </r>
       <r>     8.8654    27.5395   657.2190 </r>
       <r>     9.0187    36.0937   662.7540 </r>
       <r>     9.1721    33.9715   667.9636 </r>
       <r>     9.3254    38.6738   673.8943 </r>
       <r>     9.4788    43.4211   680.5530 </r>
       <r>     9.6321    45.5349   687.5359 </r>
       <r>     9.7855    52.2455   695.5479 </r>
       <r>     9.9389    58.5788   704.5310 </r>
       <r>    10.0922    56.7031   713.2266 </r>
       <r>    10.2456    56.2888   721.8586 </r>
       <r>    10.3989    56.1326   730.4666 </r>
       <r>    10.5523    52.6881   738.5464 </r>
       <r>    10.7056    51.1190   746.3856 </r>
       <r>    10.8590    55.7900   754.9412 </r>
       <r>    11.0123    62.0567   764.4577 </r>
       <r>    11.1657    23.0861   767.9980 </r>
       <r>    11.3190     0.0132   768.0000 </r>
       <r>    11.4724     0.0000   768.0000 </r>
       <r>    11.6257     0.0000   768.0000 </r>
       <r>    11.7791     0.0000   768.0000 </r>
       <r>    11.9324     0.0000   768.0000 </r>
       <r>    12.0858     0.0000   768.0000 </r>
       <r>    12.2391     0.0000   768.0000 </r>
       <r>    12.3925     0.0000   768.0000 </r>
       <r>    12.5458     0.0000   768.0000 </r>
       <r>    12.6992     0.0000   768.0000 </r>
       <r>    12.8525     0.0000   768.0000 </r>
       <r>    13.0059     0.0000   768.0000 </r>
       <r>    13.1592     0.0000   768.0000 </r>
      </set>
     </set>
    </array>
   </total>
  </dos>
 </calculation>
 <structure name="finalpos" >
  <crystal>
   <varray name="basis" >
    <v>      11.27715989      -0.02267242      -0.00014586 </v>
    <v>      -0.02216023      11.30368971       0.02076991 </v>
    <v>      -0.00012437       0.02919177      15.77841140 </v>
   </varray>
   <i name="volume">   2011.31481563 </i>
   <varray name="rec_basis" >
    <v>       0.08867516       0.00017384       0.00000038 </v>
    <v>       0.00017786       0.08846734      -0.00016367 </v>
    <v>       0.00000059      -0.00011645       0.06337795 </v>
   </varray>
  </crystal>
  <varray name="positions" >
   <v>      -0.00182210       0.25276326       0.12580504 </v>
   <v>       0.01288653       0.25012408       0.62226595 </v>
   <v>       0.00523686       0.74526995       0.11669531 </v>
   <v>       0.99994764       0.74785852       0.62508916 </v>
   <v>       0.48540055       0.24383806       0.12475697 </v>
   <v>       0.49225734       0.24859830       0.62657769 </v>
   <v>       0.50441016       0.75650642       0.11804453 </v>
   <v>       0.50400634       0.75683342       0.62551136 </v>
   <v>       0.00372991       0.24868464       0.38884718 </v>
   <v>       0.00773528       0.26212987       0.86587396 </v>
   <v>       0.00077562       0.76014769       0.38341550 </v>
   <v>       0.00220592       0.73741586       0.87144536 </v>
   <v>       0.49212287       0.25038300       0.38667495 </v>
   <v>       0.48362647       0.24677473       0.87764475 </v>
   <v>       0.50096654       0.75805961       0.38608896 </v>
   <v>       0.50344146       0.75273696       0.87248220 </v>
   <v>       0.25729614       0.98183897       0.12108647 </v>
   <v>       0.25348239       0.00165979       0.62647957 </v>
   <v>       0.25143898       0.50493998       0.11673713 </v>
   <v>       0.24297701       0.49971072       0.62482846 </v>
   <v>       0.74967700       0.97806882       0.12036331 </v>
   <v>       0.75498963       0.99018039       0.62327062 </v>
   <v>       0.74060058       0.51666391       0.12444292 </v>
   <v>       0.75839203       0.50770012       0.62482867 </v>
   <v>       0.25539447       0.99197044       0.38520899 </v>
   <v>       0.26218241       0.99648026       0.87063426 </v>
   <v>       0.25516341       0.50558378       0.38898127 </v>
   <v>       0.24871470       0.50290617       0.86894195 </v>
   <v>       0.75387263       0.99074702       0.38381823 </v>
   <v>       0.74577889       0.98882847       0.87378376 </v>
   <v>       0.75071227       0.50749151       0.38663375 </v>
   <v>       0.75616088       0.51143453       0.87801612 </v>
   <v>       0.00256140       0.49939550       0.50039499 </v>
   <v>       0.50237761       0.99613502       0.99981985 </v>
   <v>       0.49982880       0.50258295       0.99581735 </v>
   <v>       0.50315396       0.00191808       0.50377701 </v>
   <v>       0.74932133       0.75535235       0.25141306 </v>
   <v>       0.75002924       0.25276177       0.49664123 </v>
   <v>      -0.00007446       0.00044211       0.24963403 </v>
   <v>       0.00418764       0.99887849       0.50318066 </v>
   <v>       0.25209629       0.24923426       0.75040782 </v>
   <v>       0.50327125       0.49798738       0.50560678 </v>
   <v>       0.00170300       0.48960838       0.00033002 </v>
   <v>       0.00284104       0.00170492       0.75523692 </v>
   <v>       0.24902340       0.75284146       0.25086080 </v>
   <v>       0.49927864       0.99665954       0.25195827 </v>
   <v>       0.75150890       0.74756193       0.75118886 </v>
   <v>       0.25021338       0.75195513       0.74982982 </v>
   <v>       0.00397740       0.97302111       0.99567791 </v>
   <v>       0.75234888       0.75064574       0.50096344 </v>
   <v>       0.00006453       0.50264933       0.74997306 </v>
   <v>       0.73456615       0.26691356       0.02385984 </v>
   <v>       0.48942783       0.51342753       0.74729400 </v>
   <v>       0.25227011       0.25280355       0.50095757 </v>
   <v>       0.25926132       0.26265203       0.00180842 </v>
   <v>       0.24169789       0.21933545       0.25144152 </v>
   <v>       0.50260490       0.00487107       0.75135768 </v>
   <v>       0.76062223       0.23966447       0.73530633 </v>
   <v>       0.25626797       0.74478662       0.99823547 </v>
   <v>       0.74955861       0.74522680       0.00037535 </v>
   <v>       0.99270887       0.53183642       0.25265260 </v>
   <v>       0.74185959       0.21746993       0.25267313 </v>
   <v>       0.48988981       0.53201415       0.25160074 </v>
   <v>       0.25144236       0.75203403       0.50367456 </v>
   <v>       0.08637664       0.15799371       0.25536113 </v>
   <v>       0.12467538       0.12547621       0.75106404 </v>
   <v>       0.74103182       0.75074064       0.12675028 </v>
   <v>       0.58752592       0.15629900       0.25559161 </v>
   <v>       0.62417212       0.16462950       0.77431965 </v>
   <v>       0.60233557       0.65429696       0.25400845 </v>
   <v>       0.62881113       0.62028849       0.75219177 </v>
   <v>       0.25349827       0.28164901       0.14040159 </v>
   <v>       0.38312761       0.37092830       0.75440905 </v>
   <v>       0.39548808       0.85397105       0.24155205 </v>
   <v>       0.37890031       0.87565954       0.74813894 </v>
   <v>       0.27137841       0.73149591       0.87478144 </v>
   <v>       0.89823558       0.85786585       0.23565381 </v>
   <v>       0.88164437       0.87597902       0.75733818 </v>
   <v>       0.35283663       0.09668314       0.24519663 </v>
   <v>       0.37306361       0.12424419       0.74749544 </v>
   <v>       0.33636812       0.59769705       0.24749987 </v>
   <v>       0.87616202       0.12225074       0.74214797 </v>
   <v>       0.87780117       0.62711738       0.74862681 </v>
   <v>       0.37779437       0.88084898       0.51219758 </v>
   <v>       0.12443993       0.37456446       0.75307081 </v>
   <v>       0.14416031       0.90431010       0.25047068 </v>
   <v>       0.12629906       0.87947225       0.77097731 </v>
   <v>       0.77076291       0.27552077       0.36138222 </v>
   <v>       0.37176325       0.62657479       0.73133006 </v>
   <v>       0.64655693       0.90031124       0.25372036 </v>
   <v>       0.84388560       0.37806631       0.76466549 </v>
   <v>       0.36783719       0.38722930       0.99753689 </v>
   <v>       0.75013955       0.75105435       0.62696876 </v>
   <v>       0.37859223       0.87889215       0.00236538 </v>
   <v>       0.87422643       0.34249683       0.98924773 </v>
   <v>       0.87284209       0.37831582       0.50189170 </v>
   <v>       0.87259852       0.87299585       0.00405691 </v>
   <v>       0.87657968       0.88037051       0.50566388 </v>
   <v>       0.84090878       0.59995811       0.25130124 </v>
   <v>       0.12900291       0.12377865       0.49228788 </v>
   <v>       0.12788201       0.60645443       0.00344308 </v>
   <v>       0.12682578       0.62133383       0.49516603 </v>
   <v>       0.66528342       0.11902235       0.00188562 </v>
   <v>       0.63258227       0.12537799       0.48181195 </v>
   <v>       0.62728803       0.61623717       0.00563094 </v>
   <v>       0.62735139       0.62138714       0.49430521 </v>
   <v>       0.09853164       0.65894732       0.25443901 </v>
   <v>       0.12339167       0.37315982       0.50050101 </v>
   <v>       0.12497370       0.62693303       0.75428125 </v>
   <v>       0.61473057       0.36756423       0.98793889 </v>
   <v>       0.62464565       0.37218197       0.48803103 </v>
   <v>       0.62145841       0.87115512       0.99420371 </v>
   <v>       0.62478390       0.87611612       0.50000626 </v>
   <v>       0.37162079       0.12886242       0.01191947 </v>
   <v>       0.38047682       0.12950407       0.49946010 </v>
   <v>       0.38508258       0.62647095       0.01537161 </v>
   <v>       0.38239658       0.62507274       0.50750382 </v>
   <v>       0.99975780       0.49605469       0.62486115 </v>
   <v>       0.87880651       0.13072392       0.50387231 </v>
   <v>       0.87706060       0.60762610       0.01192413 </v>
   <v>       0.88094500       0.62449255       0.49498684 </v>
   <v>       0.02106717       0.03291026       0.10724277 </v>
   <v>       0.01358849       0.99500646       0.62807837 </v>
   <v>       0.00633473       0.47253265       0.14015816 </v>
   <v>       0.12313245       0.87659466       0.49199133 </v>
   <v>       0.51468466       0.00243915       0.12496358 </v>
   <v>       0.52337693       0.01734891       0.62667290 </v>
   <v>       0.50889814       0.46657180       0.14188343 </v>
   <v>       0.52761380       0.48015601       0.62843819 </v>
   <v>       0.98650047       0.99866366       0.37122704 </v>
   <v>       0.49771616       0.01285143       0.87869111 </v>
   <v>       0.00486031       0.47258522       0.36315174 </v>
   <v>       0.99760159       0.49785702       0.87913793 </v>
   <v>       0.48990118       0.99046791       0.37455905 </v>
   <v>       0.26211051       0.28236229       0.36007817 </v>
   <v>       0.49570266       0.47789528       0.36393345 </v>
   <v>       0.49714374       0.50913143       0.87356103 </v>
   <v>       0.72918527       0.25729799       0.61935810 </v>
   <v>       0.24561360       0.23555219       0.87987312 </v>
   <v>       0.26328612       0.75689513       0.37445834 </v>
   <v>       0.63217187       0.88119283       0.75632417 </v>
   <v>       0.75760260       0.74027734       0.87731753 </v>
   <v>       0.98631638       0.04076713       0.88700113 </v>
   <v>       0.76182676       0.76064173       0.37331889 </v>
   <v>       0.11087532       0.34717605       0.00250995 </v>
   <v>       0.13212185       0.87062630       0.98604976 </v>
   <v>       0.24586918       0.25024511       0.62670898 </v>
   <v>       0.23859341       0.75415588       0.12546058 </v>
   <v>       0.22965627       0.76246220       0.62745501 </v>
   <v>       0.75262661       0.29493246       0.14504327 </v>
   <v>       0.37525009       0.38005402       0.50623362 </v>
   <v>       0.85142342       0.09694508       0.23668886 </v>
  </varray>
 </structure>
</modeling>
