<?xml version="1.0" encoding="ISO-8859-1"?>
<modeling>
 <generator>
  <i name="program" type="string">vasp </i>
  <i name="version" type="string">5.4.1  </i>
  <i name="subversion" type="string">05Feb16 (build Jan 25 2017 20:16:33) complex                          parallel </i>
  <i name="platform" type="string">BWXE6 </i>
  <i name="date" type="string">2019 06 22 </i>
  <i name="time" type="string">03:09:48 </i>
 </generator>
 <incar>
  <i type="string" name="SYSTEM"> STF</i>
  <i type="string" name="PREC">normal</i>
  <i type="string" name="ALGO"> Fast</i>
  <i type="int" name="ISPIN">     2</i>
  <i type="int" name="NELM">    40</i>
  <i type="int" name="NELMIN">     8</i>
  <i type="int" name="IBRION">     2</i>
  <i name="EDIFF">      0.00010000</i>
  <i name="EDIFFG">     -0.03000000</i>
  <i type="int" name="NSW">    30</i>
  <i type="int" name="ISIF">     3</i>
  <i name="ENCUT">    520.00000000</i>
  <i type="int" name="NBANDS">   768</i>
  <v name="MAGMOM">      0.60000000      0.60000000      0.60000000      0.60000000      0.60000000      0.60000000      0.60000000      0.60000000      0.60000000      0.60000000      0.60000000      0.60000000      0.60000000      0.60000000      0.60000000      0.60000000      0.60000000      0.60000000      0.60000000      0.60000000
      0.60000000      0.60000000      0.60000000      0.60000000      0.60000000      0.60000000      0.60000000      0.60000000      0.60000000      0.60000000      0.60000000      0.60000000      0.60000000      0.60000000      0.60000000      0.60000000      0.60000000      0.60000000      0.60000000      0.60000000
      0.60000000      0.60000000      0.60000000      0.60000000      0.60000000      0.60000000      0.60000000      0.60000000      0.60000000      0.60000000      0.60000000      0.60000000      0.60000000      0.60000000      0.60000000      0.60000000      5.00000000      5.00000000      5.00000000      5.00000000
      5.00000000      5.00000000      5.00000000      5.00000000      0.60000000      0.60000000      0.60000000      0.60000000      0.60000000      0.60000000      0.60000000      0.60000000      0.60000000      0.60000000      0.60000000      0.60000000      0.60000000      0.60000000      0.60000000      0.60000000
      0.60000000      0.60000000      0.60000000      0.60000000      0.60000000      0.60000000      0.60000000      0.60000000      0.60000000      0.60000000      0.60000000      0.60000000      0.60000000      0.60000000      0.60000000      0.60000000      0.60000000      0.60000000      0.60000000      0.60000000
      0.60000000      0.60000000      0.60000000      0.60000000      0.60000000      0.60000000      0.60000000      0.60000000      0.60000000      0.60000000      0.60000000      0.60000000      0.60000000      0.60000000      0.60000000      0.60000000      0.60000000      0.60000000      0.60000000      0.60000000
      0.60000000      0.60000000      0.60000000      0.60000000      0.60000000      0.60000000      0.60000000      0.60000000      0.60000000      0.60000000      0.60000000      0.60000000      0.60000000      0.60000000      0.60000000      0.60000000      0.60000000      0.60000000      0.60000000      0.60000000
      0.60000000      0.60000000      0.60000000      0.60000000      0.60000000      0.60000000      0.60000000      0.60000000      0.60000000      0.60000000      0.60000000      0.60000000      0.60000000      0.60000000      0.60000000      0.60000000</v>
  <i type="string" name="LREAL"> Auto</i>
  <i type="int" name="ISMEAR">     0</i>
  <i name="SIGMA">      0.05000000</i>
  <i type="int" name="LMAXMIX">     4</i>
  <v type="int" name="KPOINT_BSE">    -1     0     0     0</v>
  <i type="int" name="NELM">    40</i>
  <i type="logical" name="LDAU"> T  </i>
  <v type="int" name="LDAUTYPE">     2</v>
  <v type="int" name="LDAUL">     0     2     2     0</v>
  <v name="LDAUU">      0.00000000      3.00000000      5.00000000      0.00000000</v>
  <v name="LDAUJ">      0.00000000      0.00000000      0.00000000      0.00000000</v>
  <i type="int" name="LDAUPRINT">     1</i>
 </incar>
 <kpoints>
  <generation param="Monkhorst-Pack">
   <v type="int" name="divisions">       2        2        2 </v>
   <v name="usershift">      0.00000000       0.00000000       0.00000000 </v>
   <v name="genvec1">      0.50000000       0.00000000       0.00000000 </v>
   <v name="genvec2">      0.00000000       0.50000000       0.00000000 </v>
   <v name="genvec3">     -0.00000000       0.00000000       0.50000000 </v>
   <v name="shift">      0.50000000       0.50000000       0.50000000 </v>
  </generation>
  <varray name="kpointlist" >
   <v>       0.25000000       0.25000000       0.25000000 </v>
   <v>      -0.25000000       0.25000000       0.25000000 </v>
   <v>       0.25000000      -0.25000000       0.25000000 </v>
   <v>      -0.25000000      -0.25000000       0.25000000 </v>
  </varray>
  <varray name="weights" >
   <v>       0.25000000 </v>
   <v>       0.25000000 </v>
   <v>       0.25000000 </v>
   <v>       0.25000000 </v>
  </varray>
 </kpoints>
 <parameters>
  <separator name="general" >
   <i type="string" name="SYSTEM">STF</i>
   <i type="logical" name="LCOMPAT"> F  </i>
  </separator>
  <separator name="electronic" >
   <i type="string" name="PREC">normal</i>
   <i name="ENMAX">    520.00000000</i>
   <i name="ENAUG">    605.39200000</i>
   <i name="EDIFF">      0.00010000</i>
   <i type="int" name="IALGO">    68</i>
   <i type="int" name="IWAVPR">    11</i>
   <i type="int" name="NBANDS">   768</i>
   <i name="NELECT">   1032.00000000</i>
   <i type="int" name="TURBO">     0</i>
   <i type="int" name="IRESTART">     0</i>
   <i type="int" name="NREBOOT">     0</i>
   <i type="int" name="NMIN">     0</i>
   <i name="EREF">      0.00000000</i>
   <separator name="electronic smearing" >
    <i type="int" name="ISMEAR">     0</i>
    <i name="SIGMA">      0.05000000</i>
    <i name="KSPACING">      0.50000000</i>
    <i type="logical" name="KGAMMA"> T  </i>
   </separator>
   <separator name="electronic projectors" >
    <i type="logical" name="LREAL"> T  </i>
    <v name="ROPT">     -0.00050000     -0.00050000     -0.00050000     -0.00050000</v>
    <i type="int" name="LMAXPAW">  -100</i>
    <i type="int" name="LMAXMIX">     4</i>
    <i type="logical" name="NLSPLINE"> F  </i>
   </separator>
   <separator name="electronic startup" >
    <i type="int" name="ISTART">     1</i>
    <i type="int" name="ICHARG">     0</i>
    <i type="int" name="INIWAV">     1</i>
   </separator>
   <separator name="electronic spin" >
    <i type="int" name="ISPIN">     2</i>
    <i type="logical" name="LNONCOLLINEAR"> F  </i>
    <v name="MAGMOM">      0.60000000      0.60000000      0.60000000      0.60000000      0.60000000      0.60000000      0.60000000      0.60000000      0.60000000      0.60000000      0.60000000      0.60000000      0.60000000      0.60000000      0.60000000      0.60000000      0.60000000      0.60000000      0.60000000      0.60000000
      0.60000000      0.60000000      0.60000000      0.60000000      0.60000000      0.60000000      0.60000000      0.60000000      0.60000000      0.60000000      0.60000000      0.60000000      0.60000000      0.60000000      0.60000000      0.60000000      0.60000000      0.60000000      0.60000000      0.60000000
      0.60000000      0.60000000      0.60000000      0.60000000      0.60000000      0.60000000      0.60000000      0.60000000      0.60000000      0.60000000      0.60000000      0.60000000      0.60000000      0.60000000      0.60000000      0.60000000      5.00000000      5.00000000      5.00000000      5.00000000
      5.00000000      5.00000000      5.00000000      5.00000000      0.60000000      0.60000000      0.60000000      0.60000000      0.60000000      0.60000000      0.60000000      0.60000000      0.60000000      0.60000000      0.60000000      0.60000000      0.60000000      0.60000000      0.60000000      0.60000000
      0.60000000      0.60000000      0.60000000      0.60000000      0.60000000      0.60000000      0.60000000      0.60000000      0.60000000      0.60000000      0.60000000      0.60000000      0.60000000      0.60000000      0.60000000      0.60000000      0.60000000      0.60000000      0.60000000      0.60000000
      0.60000000      0.60000000      0.60000000      0.60000000      0.60000000      0.60000000      0.60000000      0.60000000      0.60000000      0.60000000      0.60000000      0.60000000      0.60000000      0.60000000      0.60000000      0.60000000      0.60000000      0.60000000      0.60000000      0.60000000
      0.60000000      0.60000000      0.60000000      0.60000000      0.60000000      0.60000000      0.60000000      0.60000000      0.60000000      0.60000000      0.60000000      0.60000000      0.60000000      0.60000000      0.60000000      0.60000000      0.60000000      0.60000000      0.60000000      0.60000000
      0.60000000      0.60000000      0.60000000      0.60000000      0.60000000      0.60000000      0.60000000      0.60000000      0.60000000      0.60000000      0.60000000      0.60000000      0.60000000      0.60000000      0.60000000      0.60000000</v>
    <i name="NUPDOWN">     -1.00000000</i>
    <i type="logical" name="LSORBIT"> F  </i>
    <v name="SAXIS">      0.00000000      0.00000000      1.00000000</v>
    <i type="logical" name="LSPIRAL"> F  </i>
    <v name="QSPIRAL">      0.00000000      0.00000000      0.00000000</v>
    <i type="logical" name="LZEROZ"> F  </i>
   </separator>
   <separator name="electronic exchange-correlation" >
    <i type="logical" name="LASPH"> F  </i>
    <i type="logical" name="LMETAGGA"> F  </i>
   </separator>
   <separator name="electronic convergence" >
    <i type="int" name="NELM">    40</i>
    <i type="int" name="NELMDL">     0</i>
    <i type="int" name="NELMIN">     8</i>
    <i name="ENINI">    520.00000000</i>
    <separator name="electronic convergence detail" >
     <i type="logical" name="LDIAG"> T  </i>
     <i type="logical" name="LSUBROT"> F  </i>
     <i name="WEIMIN">      0.00100000</i>
     <i name="EBREAK">      0.00000003</i>
     <i name="DEPER">      0.30000000</i>
     <i type="int" name="NRMM">     4</i>
     <i name="TIME">      0.40000000</i>
    </separator>
   </separator>
   <separator name="electronic mixer" >
    <i name="AMIX">      0.40000000</i>
    <i name="BMIX">      1.00000000</i>
    <i name="AMIN">      0.10000000</i>
    <i name="AMIX_MAG">      1.60000000</i>
    <i name="BMIX_MAG">      1.00000000</i>
    <separator name="electronic mixer details" >
     <i type="int" name="IMIX">     4</i>
     <i type="logical" name="MIXFIRST"> F  </i>
     <i type="int" name="MAXMIX">   -45</i>
     <i name="WC">    100.00000000</i>
     <i type="int" name="INIMIX">     1</i>
     <i type="int" name="MIXPRE">     1</i>
     <i type="int" name="MREMOVE">     5</i>
    </separator>
   </separator>
   <separator name="electronic dipolcorrection" >
    <i type="logical" name="LDIPOL"> F  </i>
    <i type="logical" name="LMONO"> F  </i>
    <i type="int" name="IDIPOL">     0</i>
    <i name="EPSILON">      1.00000000</i>
    <v name="DIPOL">   -100.00000000   -100.00000000   -100.00000000</v>
    <i name="EFIELD">      0.00000000</i>
   </separator>
  </separator>
  <separator name="grids" >
   <i type="int" name="NGX">    64</i>
   <i type="int" name="NGY">    64</i>
   <i type="int" name="NGZ">    90</i>
   <i type="int" name="NGXF">   128</i>
   <i type="int" name="NGYF">   128</i>
   <i type="int" name="NGZF">   180</i>
   <i type="logical" name="ADDGRID"> F  </i>
  </separator>
  <separator name="ionic" >
   <i type="int" name="NSW">    30</i>
   <i type="int" name="IBRION">     2</i>
   <i type="int" name="ISIF">     3</i>
   <i name="PSTRESS">      0.00000000</i>
   <i name="EDIFFG">     -0.03000000</i>
   <i type="int" name="NFREE">     1</i>
   <i name="POTIM">      0.50000000</i>
   <i name="SMASS">     -3.00000000</i>
   <i name="SCALEE">      1.00000000</i>
  </separator>
  <separator name="ionic md" >
   <i name="TEBEG">      0.00010000</i>
   <i name="TEEND">      0.00010000</i>
   <i type="int" name="NBLOCK">     1</i>
   <i type="int" name="KBLOCK">    30</i>
   <i type="int" name="NPACO">   256</i>
   <i name="APACO">     16.00000000</i>
  </separator>
  <separator name="symmetry" >
   <i type="int" name="ISYM">     2</i>
   <i name="SYMPREC">      0.00001000</i>
  </separator>
  <separator name="dos" >
   <i type="logical" name="LORBIT"> F  </i>
   <v name="RWIGS">     -1.00000000     -1.00000000     -1.00000000     -1.00000000</v>
   <i type="int" name="NEDOS">   301</i>
   <i name="EMIN">     10.00000000</i>
   <i name="EMAX">    -10.00000000</i>
   <i name="EFERMI">      0.00000000</i>
  </separator>
  <separator name="writing" >
   <i type="int" name="NWRITE">     2</i>
   <i type="logical" name="LWAVE"> T  </i>
   <i type="logical" name="LCHARG"> T  </i>
   <i type="logical" name="LPARD"> F  </i>
   <i type="logical" name="LVTOT"> F  </i>
   <i type="logical" name="LVHAR"> F  </i>
   <i type="logical" name="LELF"> F  </i>
   <i type="logical" name="LOPTICS"> F  </i>
   <v name="STM">      0.00000000      0.00000000      0.00000000      0.00000000      0.00000000      0.00000000      0.00000000</v>
  </separator>
  <separator name="performance" >
   <i type="int" name="NPAR">     2</i>
   <i type="int" name="NSIM">     4</i>
   <i type="int" name="NBLK">    -1</i>
   <i type="logical" name="LPLANE"> T  </i>
   <i type="logical" name="LSCALAPACK"> T  </i>
   <i type="logical" name="LSCAAWARE"> F  </i>
   <i type="logical" name="LSCALU"> F  </i>
   <i type="logical" name="LASYNC"> F  </i>
   <i type="logical" name="LORBITALREAL"> F  </i>
  </separator>
  <separator name="miscellaneous" >
   <i type="int" name="IDIOT">     3</i>
   <i type="logical" name="LMUSIC"> F  </i>
   <v name="POMASS">     87.62000000     47.88000000     55.84700000     16.00000000</v>
   <v name="DARWINR">      0.00000000      0.00000000      0.00000000      0.00000000</v>
   <v name="DARWINV">      1.00000000      1.00000000      1.00000000      1.00000000</v>
   <i type="logical" name="LCORR"> T  </i>
  </separator>
  <i type="logical" name="GGA_COMPAT"> T  </i>
  <i type="logical" name="LBERRY"> F  </i>
  <i type="int" name="ICORELEVEL">     0</i>
  <i type="logical" name="LDAU"> T  </i>
  <v type="int" name="LDAUTYPE">     2</v>
  <v type="int" name="LDAUL">     0</v>
  <v name="LDAUU">      0.00000000</v>
  <v name="LDAUJ">      0.00000000</v>
  <i type="int" name="LDAUPRINT">     1</i>
  <i type="int" name="I_CONSTRAINED_M">     0</i>
  <separator name="electronic exchange-correlation" >
   <i type="string" name="GGA">--</i>
   <i type="int" name="VOSKOWN">     0</i>
   <i type="logical" name="LHFCALC"> F  </i>
   <i type="string" name="PRECFOCK"></i>
   <i type="logical" name="LSYMGRAD"> F  </i>
   <i type="logical" name="LHFONE"> F  </i>
   <i type="logical" name="LRHFCALC"> F  </i>
   <i type="logical" name="LTHOMAS"> F  </i>
   <i type="logical" name="LMODELHF"> F  </i>
   <i name="ENCUT4O">     -1.00000000</i>
   <i type="int" name="EXXOEP">     0</i>
   <i type="int" name="FOURORBIT">     0</i>
   <i name="AEXX">      0.00000000</i>
   <i name="HFALPHA">      0.00000000</i>
   <i name="MCALPHA">      0.00000000</i>
   <i name="ALDAX">      1.00000000</i>
   <i name="AGGAX">      1.00000000</i>
   <i name="ALDAC">      1.00000000</i>
   <i name="AGGAC">      1.00000000</i>
   <i type="int" name="NKREDX">     1</i>
   <i type="int" name="NKREDY">     1</i>
   <i type="int" name="NKREDZ">     1</i>
   <i type="logical" name="SHIFTRED"> F  </i>
   <i type="logical" name="ODDONLY"> F  </i>
   <i type="logical" name="EVENONLY"> F  </i>
   <i type="int" name="LMAXFOCK">     0</i>
   <i type="int" name="NMAXFOCKAE">     0</i>
   <i type="logical" name="LFOCKAEDFT"> F  </i>
   <i name="HFSCREEN">      0.00000000</i>
   <i name="HFSCREENC">      0.00000000</i>
   <i type="int" name="NBANDSGWLOW">     0</i>
  </separator>
  <separator name="vdW DFT" >
   <i type="logical" name="LUSE_VDW"> F  </i>
   <i name="Zab_VDW">     -0.84910000</i>
   <i name="PARAM1">      0.12340000</i>
   <i name="PARAM2">      1.00000000</i>
   <i name="PARAM3">      0.00000000</i>
  </separator>
  <separator name="model GW" >
   <i type="int" name="MODEL_GW">     0</i>
   <i name="MODEL_EPS0">      7.74478534</i>
   <i name="MODEL_ALPHA">      1.00000000</i>
  </separator>
  <separator name="linear response parameters" >
   <i type="logical" name="LEPSILON"> F  </i>
   <i type="logical" name="LRPA"> F  </i>
   <i type="logical" name="LNABLA"> F  </i>
   <i type="logical" name="LVEL"> F  </i>
   <i type="int" name="KINTER">     0</i>
   <i name="CSHIFT">      0.10000000</i>
   <i name="OMEGAMAX">     -1.00000000</i>
   <i name="DEG_THRESHOLD">      0.00200000</i>
  </separator>
  <separator name="orbital magnetization" >
   <i type="logical" name="NUCIND"> F  </i>
   <v name="MAGPOS">      0.00000000      0.00000000      0.00000000</v>
   <i type="logical" name="LNICSALL"> T  </i>
   <i type="logical" name="ORBITALMAG"> F  </i>
   <i type="logical" name="LMAGBLOCH"> F  </i>
   <i type="logical" name="LCHIMAG"> F  </i>
   <i type="logical" name="LGAUGE"> T  </i>
   <i type="int" name="MAGATOM">     0</i>
   <v name="MAGDIPOL">      0.00000000      0.00000000      0.00000000</v>
   <v name="AVECCONST">      0.00000000      0.00000000      0.00000000</v>
  </separator>
  <separator name="response functions" >
   <i type="logical" name="LADDER"> F  </i>
   <i type="logical" name="LFXC"> F  </i>
   <i type="logical" name="LHARTREE"> T  </i>
   <i type="int" name="IBSE">     0</i>
   <v type="int" name="KPOINT">    -1     0     0     0</v>
   <i type="logical" name="LTCTE"> F  </i>
   <i type="logical" name="LTETE"> F  </i>
   <i type="logical" name="LTRIPLET"> F  </i>
   <i type="logical" name="LFXCEPS"> F  </i>
   <i type="logical" name="LFXHEG"> F  </i>
   <i type="int" name="NATURALO">     0</i>
   <i type="logical" name="L2ORDER"> F  </i>
   <i type="logical" name="LUSEW"> F  </i>
   <i name="ENCUTGW">     -2.00000000</i>
   <i name="ENCUTGWSOFT">     -2.00000000</i>
   <i name="ENCUTLF">     -1.00000000</i>
   <i type="int" name="LMAXMP2">    -1</i>
   <i name="SCISSOR">      0.00000000</i>
   <i type="int" name="NOMEGA">     0</i>
   <i type="int" name="NOMEGAR">     0</i>
   <i type="int" name="NBANDSGW">    -1</i>
   <i type="int" name="NBANDSO">    -1</i>
   <i type="int" name="NBANDSV">    -1</i>
   <i type="int" name="NELM">    40</i>
   <i type="int" name="NELMHF">     1</i>
   <i type="int" name="DIM">     3</i>
   <i type="int" name="ANTIRES">     0</i>
   <i name="OMEGAMAX">    -30.00000000</i>
   <i name="OMEGAMIN">    -30.00000000</i>
   <i name="OMEGATL">   -200.00000000</i>
   <i type="int" name="OMEGAGRID">     0</i>
   <i name="CSHIFT">     -0.10000000</i>
   <i type="logical" name="SELFENERGY"> F  </i>
   <i type="logical" name="LSPECTRAL"> F  </i>
   <i type="logical" name="LSPECTRALGW"> F  </i>
   <i type="logical" name="LSINGLES"> F  </i>
   <i type="logical" name="LFERMIGW"> F  </i>
   <i type="logical" name="ODDONLYGW"> F  </i>
   <i type="logical" name="EVENONLYGW"> F  </i>
   <i type="int" name="NKREDLFX">     1</i>
   <i type="int" name="NKREDLFY">     1</i>
   <i type="int" name="NKREDLFZ">     1</i>
   <i type="int" name="MAXMEM">  1800</i>
   <i type="int" name="TELESCOPE">     0</i>
   <i type="int" name="TAUPAR">     1</i>
   <i type="int" name="OMEGAPAR">    -1</i>
   <i name="LAMBDA">      1.00000000</i>
  </separator>
  <separator name="External order field" >
   <i name="OFIELD_KAPPA">      0.00000000</i>
   <v name="OFIELD_K">      0.00000000      0.00000000      0.00000000</v>
   <i name="OFIELD_Q6_NEAR">      0.00000000</i>
   <i name="OFIELD_Q6_FAR">      0.00000000</i>
   <i name="OFIELD_A">      0.00000000</i>
  </separator>
 </parameters>
 <atominfo>
  <atoms>     156 </atoms>
  <types>       4 </types>
  <array name="atoms" >
   <dimension dim="1">ion</dimension>
   <field type="string">element</field>
   <field type="int">atomtype</field>
   <set>
    <rc><c>Sr</c><c>   1</c></rc>
    <rc><c>Sr</c><c>   1</c></rc>
    <rc><c>Sr</c><c>   1</c></rc>
    <rc><c>Sr</c><c>   1</c></rc>
    <rc><c>Sr</c><c>   1</c></rc>
    <rc><c>Sr</c><c>   1</c></rc>
    <rc><c>Sr</c><c>   1</c></rc>
    <rc><c>Sr</c><c>   1</c></rc>
    <rc><c>Sr</c><c>   1</c></rc>
    <rc><c>Sr</c><c>   1</c></rc>
    <rc><c>Sr</c><c>   1</c></rc>
    <rc><c>Sr</c><c>   1</c></rc>
    <rc><c>Sr</c><c>   1</c></rc>
    <rc><c>Sr</c><c>   1</c></rc>
    <rc><c>Sr</c><c>   1</c></rc>
    <rc><c>Sr</c><c>   1</c></rc>
    <rc><c>Sr</c><c>   1</c></rc>
    <rc><c>Sr</c><c>   1</c></rc>
    <rc><c>Sr</c><c>   1</c></rc>
    <rc><c>Sr</c><c>   1</c></rc>
    <rc><c>Sr</c><c>   1</c></rc>
    <rc><c>Sr</c><c>   1</c></rc>
    <rc><c>Sr</c><c>   1</c></rc>
    <rc><c>Sr</c><c>   1</c></rc>
    <rc><c>Sr</c><c>   1</c></rc>
    <rc><c>Sr</c><c>   1</c></rc>
    <rc><c>Sr</c><c>   1</c></rc>
    <rc><c>Sr</c><c>   1</c></rc>
    <rc><c>Sr</c><c>   1</c></rc>
    <rc><c>Sr</c><c>   1</c></rc>
    <rc><c>Sr</c><c>   1</c></rc>
    <rc><c>Sr</c><c>   1</c></rc>
    <rc><c>Ti</c><c>   2</c></rc>
    <rc><c>Ti</c><c>   2</c></rc>
    <rc><c>Ti</c><c>   2</c></rc>
    <rc><c>Ti</c><c>   2</c></rc>
    <rc><c>Ti</c><c>   2</c></rc>
    <rc><c>Ti</c><c>   2</c></rc>
    <rc><c>Ti</c><c>   2</c></rc>
    <rc><c>Ti</c><c>   2</c></rc>
    <rc><c>Ti</c><c>   2</c></rc>
    <rc><c>Ti</c><c>   2</c></rc>
    <rc><c>Ti</c><c>   2</c></rc>
    <rc><c>Ti</c><c>   2</c></rc>
    <rc><c>Ti</c><c>   2</c></rc>
    <rc><c>Ti</c><c>   2</c></rc>
    <rc><c>Ti</c><c>   2</c></rc>
    <rc><c>Ti</c><c>   2</c></rc>
    <rc><c>Ti</c><c>   2</c></rc>
    <rc><c>Ti</c><c>   2</c></rc>
    <rc><c>Ti</c><c>   2</c></rc>
    <rc><c>Ti</c><c>   2</c></rc>
    <rc><c>Ti</c><c>   2</c></rc>
    <rc><c>Ti</c><c>   2</c></rc>
    <rc><c>Ti</c><c>   2</c></rc>
    <rc><c>Ti</c><c>   2</c></rc>
    <rc><c>Fe</c><c>   3</c></rc>
    <rc><c>Fe</c><c>   3</c></rc>
    <rc><c>Fe</c><c>   3</c></rc>
    <rc><c>Fe</c><c>   3</c></rc>
    <rc><c>Fe</c><c>   3</c></rc>
    <rc><c>Fe</c><c>   3</c></rc>
    <rc><c>Fe</c><c>   3</c></rc>
    <rc><c>Fe</c><c>   3</c></rc>
    <rc><c>O </c><c>   4</c></rc>
    <rc><c>O </c><c>   4</c></rc>
    <rc><c>O </c><c>   4</c></rc>
    <rc><c>O </c><c>   4</c></rc>
    <rc><c>O </c><c>   4</c></rc>
    <rc><c>O </c><c>   4</c></rc>
    <rc><c>O </c><c>   4</c></rc>
    <rc><c>O </c><c>   4</c></rc>
    <rc><c>O </c><c>   4</c></rc>
    <rc><c>O </c><c>   4</c></rc>
    <rc><c>O </c><c>   4</c></rc>
    <rc><c>O </c><c>   4</c></rc>
    <rc><c>O </c><c>   4</c></rc>
    <rc><c>O </c><c>   4</c></rc>
    <rc><c>O </c><c>   4</c></rc>
    <rc><c>O </c><c>   4</c></rc>
    <rc><c>O </c><c>   4</c></rc>
    <rc><c>O </c><c>   4</c></rc>
    <rc><c>O </c><c>   4</c></rc>
    <rc><c>O </c><c>   4</c></rc>
    <rc><c>O </c><c>   4</c></rc>
    <rc><c>O </c><c>   4</c></rc>
    <rc><c>O </c><c>   4</c></rc>
    <rc><c>O </c><c>   4</c></rc>
    <rc><c>O </c><c>   4</c></rc>
    <rc><c>O </c><c>   4</c></rc>
    <rc><c>O </c><c>   4</c></rc>
    <rc><c>O </c><c>   4</c></rc>
    <rc><c>O </c><c>   4</c></rc>
    <rc><c>O </c><c>   4</c></rc>
    <rc><c>O </c><c>   4</c></rc>
    <rc><c>O </c><c>   4</c></rc>
    <rc><c>O </c><c>   4</c></rc>
    <rc><c>O </c><c>   4</c></rc>
    <rc><c>O </c><c>   4</c></rc>
    <rc><c>O </c><c>   4</c></rc>
    <rc><c>O </c><c>   4</c></rc>
    <rc><c>O </c><c>   4</c></rc>
    <rc><c>O </c><c>   4</c></rc>
    <rc><c>O </c><c>   4</c></rc>
    <rc><c>O </c><c>   4</c></rc>
    <rc><c>O </c><c>   4</c></rc>
    <rc><c>O </c><c>   4</c></rc>
    <rc><c>O </c><c>   4</c></rc>
    <rc><c>O </c><c>   4</c></rc>
    <rc><c>O </c><c>   4</c></rc>
    <rc><c>O </c><c>   4</c></rc>
    <rc><c>O </c><c>   4</c></rc>
    <rc><c>O </c><c>   4</c></rc>
    <rc><c>O </c><c>   4</c></rc>
    <rc><c>O </c><c>   4</c></rc>
    <rc><c>O </c><c>   4</c></rc>
    <rc><c>O </c><c>   4</c></rc>
    <rc><c>O </c><c>   4</c></rc>
    <rc><c>O </c><c>   4</c></rc>
    <rc><c>O </c><c>   4</c></rc>
    <rc><c>O </c><c>   4</c></rc>
    <rc><c>O </c><c>   4</c></rc>
    <rc><c>O </c><c>   4</c></rc>
    <rc><c>O </c><c>   4</c></rc>
    <rc><c>O </c><c>   4</c></rc>
    <rc><c>O </c><c>   4</c></rc>
    <rc><c>O </c><c>   4</c></rc>
    <rc><c>O </c><c>   4</c></rc>
    <rc><c>O </c><c>   4</c></rc>
    <rc><c>O </c><c>   4</c></rc>
    <rc><c>O </c><c>   4</c></rc>
    <rc><c>O </c><c>   4</c></rc>
    <rc><c>O </c><c>   4</c></rc>
    <rc><c>O </c><c>   4</c></rc>
    <rc><c>O </c><c>   4</c></rc>
    <rc><c>O </c><c>   4</c></rc>
    <rc><c>O </c><c>   4</c></rc>
    <rc><c>O </c><c>   4</c></rc>
    <rc><c>O </c><c>   4</c></rc>
    <rc><c>O </c><c>   4</c></rc>
    <rc><c>O </c><c>   4</c></rc>
    <rc><c>O </c><c>   4</c></rc>
    <rc><c>O </c><c>   4</c></rc>
    <rc><c>O </c><c>   4</c></rc>
    <rc><c>O </c><c>   4</c></rc>
    <rc><c>O </c><c>   4</c></rc>
    <rc><c>O </c><c>   4</c></rc>
    <rc><c>O </c><c>   4</c></rc>
    <rc><c>O </c><c>   4</c></rc>
    <rc><c>O </c><c>   4</c></rc>
    <rc><c>O </c><c>   4</c></rc>
    <rc><c>O </c><c>   4</c></rc>
    <rc><c>O </c><c>   4</c></rc>
    <rc><c>O </c><c>   4</c></rc>
    <rc><c>O </c><c>   4</c></rc>
    <rc><c>O </c><c>   4</c></rc>
   </set>
  </array>
  <array name="atomtypes" >
   <dimension dim="1">type</dimension>
   <field type="int">atomspertype</field>
   <field type="string">element</field>
   <field>mass</field>
   <field>valence</field>
   <field type="string">pseudopotential</field>
   <set>
    <rc><c>  32</c><c>Sr</c><c>     87.62000000</c><c>     10.00000000</c><c>  PAW_PBE Sr_sv 07Sep2000               </c></rc>
    <rc><c>  24</c><c>Ti</c><c>     47.88000000</c><c>      4.00000000</c><c>  PAW_PBE Ti 08Apr2002                  </c></rc>
    <rc><c>   8</c><c>Fe</c><c>     55.84700000</c><c>      8.00000000</c><c>  PAW_PBE Fe 06Sep2000                  </c></rc>
    <rc><c>  92</c><c>O </c><c>     16.00000000</c><c>      6.00000000</c><c>  PAW_PBE O 08Apr2002                   </c></rc>
   </set>
  </array>
 </atominfo>
 <structure name="initialpos" >
  <crystal>
   <varray name="basis" >
    <v>      11.24820597       0.01753449       0.00152535 </v>
    <v>       0.01765034      11.24414395      -0.00192743 </v>
    <v>       0.00219535      -0.00275784      15.92113994 </v>
   </varray>
   <i name="volume">   2013.64418965 </i>
   <varray name="rec_basis" >
    <v>       0.08890329      -0.00013956      -0.00001228 </v>
    <v>      -0.00013864       0.08893540       0.00001542 </v>
    <v>      -0.00000853       0.00001078       0.06280958 </v>
   </varray>
  </crystal>
  <varray name="positions" >
   <v>       0.00241944       0.25303152       0.13275595 </v>
   <v>       0.01741103       0.25213960       0.62865155 </v>
   <v>       0.00277360       0.74808458       0.13153612 </v>
   <v>       0.99619306       0.74942560       0.62751969 </v>
   <v>       0.50074047       0.24581791       0.12494662 </v>
   <v>       0.48508820       0.24652019       0.63674741 </v>
   <v>       0.50135691       0.75033105       0.12716872 </v>
   <v>       0.50610453       0.75468456       0.63154589 </v>
   <v>       0.01688652       0.25753294       0.36959059 </v>
   <v>       0.00173310       0.25055965       0.86869398 </v>
   <v>       0.00089460       0.74532232       0.36993696 </v>
   <v>       0.99736902       0.75037429       0.86976286 </v>
   <v>       0.48554071       0.24732104       0.36312425 </v>
   <v>       0.50073975       0.24620895       0.87588729 </v>
   <v>       0.50055743       0.75319663       0.36750292 </v>
   <v>       0.50623039       0.75055387       0.87331031 </v>
   <v>       0.25512075       0.99962600       0.13309394 </v>
   <v>       0.24447158       0.00226439       0.63049382 </v>
   <v>       0.25082040       0.50079718       0.13893317 </v>
   <v>       0.24467778       0.49395480       0.62598821 </v>
   <v>       0.74589844       0.99748513       0.12770721 </v>
   <v>       0.75221225       0.98774355       0.63309873 </v>
   <v>       0.74561127       0.50239062       0.12954994 </v>
   <v>       0.75281856       0.51064910       0.63110174 </v>
   <v>       0.24473729       0.00039978       0.36803928 </v>
   <v>       0.25537326       0.00254745       0.86836266 </v>
   <v>       0.23982620       0.49812183       0.37062735 </v>
   <v>       0.25512731       0.49756260       0.86468895 </v>
   <v>       0.75209531       0.98999991       0.36740451 </v>
   <v>       0.74619200       0.99533711       0.87221799 </v>
   <v>       0.75691362       0.50685318       0.36894625 </v>
   <v>       0.74429340       0.50476896       0.87063980 </v>
   <v>       0.00386005       0.99497804       0.49932984 </v>
   <v>       0.98368174       0.49040132       0.00013532 </v>
   <v>       0.48472783       0.99074804       0.49996311 </v>
   <v>       0.50492134       0.50341822       0.00045434 </v>
   <v>       0.49069572       0.51613974       0.49983924 </v>
   <v>       0.25837488       0.26359355       0.00030410 </v>
   <v>       0.25182245       0.25088469       0.49949324 </v>
   <v>       0.25929145       0.76543982       0.99967589 </v>
   <v>       0.24212188       0.74851673       0.49861885 </v>
   <v>       0.75081019       0.24311497       0.99996844 </v>
   <v>       0.77740009       0.25528858       0.50127675 </v>
   <v>       0.74866054       0.75162938       0.99914491 </v>
   <v>       0.75416061       0.74983091       0.50058120 </v>
   <v>       0.24926716       0.74860527       0.74814500 </v>
   <v>       0.74890148       0.24994270       0.24801098 </v>
   <v>       0.74797843       0.24923073       0.75181721 </v>
   <v>       0.75172584       0.74800071       0.24829154 </v>
   <v>       0.00312505       0.00086865       0.24788105 </v>
   <v>       0.00079617       0.00105105       0.75183854 </v>
   <v>       0.00099747       0.50090135       0.74730491 </v>
   <v>       0.49874633       0.99976661       0.24766762 </v>
   <v>       0.50089262       0.99975235       0.75269176 </v>
   <v>       0.49871670       0.49866064       0.25057989 </v>
   <v>       0.50091747       0.49894436       0.74954557 </v>
   <v>       0.98473099       0.99070768       0.00019317 </v>
   <v>       0.00328743       0.50471750       0.49911156 </v>
   <v>       0.50321664       0.00121248       0.00015593 </v>
   <v>       0.24796408       0.24866156       0.24794666 </v>
   <v>       0.24880618       0.24792776       0.75185093 </v>
   <v>       0.24879354       0.74777554       0.25095641 </v>
   <v>       0.75078115       0.74932820       0.75159316 </v>
   <v>       0.00297804       0.50120325       0.25155065 </v>
   <v>       0.11297999       0.13294660       0.25540423 </v>
   <v>       0.11286032       0.13376142       0.74530466 </v>
   <v>       0.11706058       0.63469940       0.25341533 </v>
   <v>       0.11478955       0.63639661       0.74530113 </v>
   <v>       0.61397441       0.13631669       0.24715633 </v>
   <v>       0.61371567       0.13691138       0.75405652 </v>
   <v>       0.61508615       0.63494983       0.25143952 </v>
   <v>       0.61226660       0.63323689       0.74827056 </v>
   <v>       0.38602950       0.36434199       0.24086712 </v>
   <v>       0.38573158       0.36386611       0.75869440 </v>
   <v>       0.38631879       0.86497078       0.24711855 </v>
   <v>       0.38557307       0.86182963       0.75397718 </v>
   <v>       0.88049465       0.36114294       0.25678962 </v>
   <v>       0.88386230       0.36175919       0.74370086 </v>
   <v>       0.88443259       0.86668369       0.24588916 </v>
   <v>       0.88660406       0.86838861       0.75370242 </v>
   <v>       0.36513913       0.11303622       0.25090982 </v>
   <v>       0.36488437       0.11125757       0.74889308 </v>
   <v>       0.36862118       0.61222871       0.25647195 </v>
   <v>       0.36381951       0.61107281       0.74396618 </v>
   <v>       0.86068370       0.11498467       0.25658906 </v>
   <v>       0.86122908       0.11619870       0.74310085 </v>
   <v>       0.86380709       0.61492662       0.24727249 </v>
   <v>       0.86584205       0.61208232       0.75292495 </v>
   <v>       0.13443234       0.38193381       0.24839236 </v>
   <v>       0.13429424       0.38537940       0.75099106 </v>
   <v>       0.13412760       0.88607067       0.24657352 </v>
   <v>       0.13696640       0.88521207       0.75403480 </v>
   <v>       0.63643133       0.38497104       0.24964318 </v>
   <v>       0.63780895       0.38518494       0.74996972 </v>
   <v>       0.63595911       0.88504759       0.24962479 </v>
   <v>       0.63444956       0.88568896       0.75045260 </v>
   <v>       0.35653315       0.39554017       0.00075675 </v>
   <v>       0.36817255       0.39281654       0.49984607 </v>
   <v>       0.35742987       0.89478424       0.99952450 </v>
   <v>       0.35013277       0.89913230       0.50076342 </v>
   <v>       0.84811909       0.39880696       0.99921853 </v>
   <v>       0.85002434       0.40097084       0.50244282 </v>
   <v>       0.84945970       0.89501440       0.00019899 </v>
   <v>       0.85476679       0.89873217       0.50036331 </v>
   <v>       0.14820721       0.10413491       0.49999542 </v>
   <v>       0.14967252       0.60714576       0.50160070 </v>
   <v>       0.64511443       0.10994121       0.99927715 </v>
   <v>       0.64407572       0.60564618       0.00014928 </v>
   <v>       0.64473185       0.60234980       0.49978893 </v>
   <v>       0.10481928       0.35830340       0.99909364 </v>
   <v>       0.11416010       0.35716533       0.50121358 </v>
   <v>       0.10893686       0.85842987       0.99870219 </v>
   <v>       0.10292210       0.85294584       0.50053430 </v>
   <v>       0.60534119       0.35677797       0.00000139 </v>
   <v>       0.60694465       0.85428879       0.00054090 </v>
   <v>       0.61047359       0.86627236       0.49962533 </v>
   <v>       0.38225607       0.14036952       0.99938383 </v>
   <v>       0.41106506       0.14851680       0.50035649 </v>
   <v>       0.38636124       0.63871840       0.99784347 </v>
   <v>       0.39844507       0.65229718       0.50178295 </v>
   <v>       0.89839616       0.15129826       0.99987750 </v>
   <v>       0.90059455       0.14669574       0.50042877 </v>
   <v>       0.90251687       0.64691847       0.99956978 </v>
   <v>       0.89393422       0.64904352       0.50015634 </v>
   <v>       0.00793878       0.01344979       0.12186672 </v>
   <v>       0.00209120       0.99568920       0.62440186 </v>
   <v>       0.01231211       0.50853251       0.11888507 </v>
   <v>       0.00130798       0.50084247       0.62529300 </v>
   <v>       0.50124971       0.00164192       0.12476352 </v>
   <v>       0.50916593       0.00315354       0.62302084 </v>
   <v>       0.50247815       0.50511479       0.12459330 </v>
   <v>       0.50947001       0.48680555       0.62123374 </v>
   <v>       0.00078168       0.99499408       0.37595908 </v>
   <v>       0.00775311       0.01361778       0.87787234 </v>
   <v>       0.00019427       0.49958001       0.37716115 </v>
   <v>       0.01361056       0.50912256       0.87852569 </v>
   <v>       0.50856483       0.00353073       0.37735096 </v>
   <v>       0.50046826       0.00063066       0.87514357 </v>
   <v>       0.50967964       0.48821833       0.37861634 </v>
   <v>       0.50221141       0.50278804       0.87510311 </v>
   <v>       0.25370524       0.25086227       0.37633150 </v>
   <v>       0.23334669       0.23258220       0.88113427 </v>
   <v>       0.25261190       0.75510880       0.37821484 </v>
   <v>       0.24064720       0.73240086       0.87768017 </v>
   <v>       0.70919650       0.24209670       0.39415559 </v>
   <v>       0.75350990       0.25124193       0.87352363 </v>
   <v>       0.75180789       0.75147935       0.37434138 </v>
   <v>       0.74804622       0.74745503       0.87688660 </v>
   <v>       0.23229606       0.22983461       0.11803911 </v>
   <v>       0.25355536       0.25096491       0.62411373 </v>
   <v>       0.24193211       0.73329900       0.11851916 </v>
   <v>       0.25182371       0.75700483       0.62527433 </v>
   <v>       0.75274784       0.25065599       0.12559011 </v>
   <v>       0.70954988       0.23969056       0.60847582 </v>
   <v>       0.74755014       0.74744765       0.12427204 </v>
   <v>       0.75113354       0.75077986       0.62423066 </v>
  </varray>
 </structure>
 <calculation>
  <scstep>
   <time name="dav">  599.27  599.29</time>
   <time name="total">  606.47  606.68</time>
   <energy>
    <i name="alphaZ">   5604.44411971 </i>
    <i name="ewald"> -60799.42691191 </i>
    <i name="hartreedc"> -16686.95487003 </i>
    <i name="XCdc">   2962.70082819 </i>
    <i name="pawpsdc"> 113356.21106955 </i>
    <i name="pawaedc">-112254.96440709 </i>
    <i name="eentropy">     -0.00000000 </i>
    <i name="bandstr">  -7084.52345968 </i>
    <i name="atom">  73783.44779670 </i>
    <i name="e_fr_energy">  -1119.06583455 </i>
    <i name="e_wo_entrp">  -1119.06583455 </i>
    <i name="e_0_energy">  -1119.06583455 </i>
   </energy>
  </scstep>
  <scstep>
   <time name="diag">   65.01   65.02</time>
   <time name="diis">   63.76   63.77</time>
   <time name="orth">   33.78   33.78</time>
   <time name="total">  169.77  169.80</time>
   <energy>
    <i name="e_fr_energy">  -1119.06583661 </i>
    <i name="e_wo_entrp">  -1119.06583661 </i>
    <i name="e_0_energy">  -1119.06583661 </i>
   </energy>
  </scstep>
  <scstep>
   <time name="diag">   65.00   65.00</time>
   <time name="diis">   62.81   62.81</time>
   <time name="orth">   33.79   33.79</time>
   <time name="total">  168.81  168.87</time>
   <energy>
    <i name="e_fr_energy">  -1119.06583756 </i>
    <i name="e_wo_entrp">  -1119.06583756 </i>
    <i name="e_0_energy">  -1119.06583756 </i>
   </energy>
  </scstep>
  <scstep>
   <time name="diag">   65.00   65.00</time>
   <time name="diis">   56.42   56.42</time>
   <time name="orth">   33.69   33.69</time>
   <time name="total">  162.32  162.68</time>
   <energy>
    <i name="e_fr_energy">  -1119.06583979 </i>
    <i name="e_wo_entrp">  -1119.06583979 </i>
    <i name="e_0_energy">  -1119.06583979 </i>
   </energy>
  </scstep>
  <scstep>
   <time name="diag">   65.07   65.07</time>
   <time name="diis">   56.89   56.89</time>
   <time name="orth">   33.78   33.78</time>
   <time name="total">  162.96  162.97</time>
   <energy>
    <i name="e_fr_energy">  -1119.06584095 </i>
    <i name="e_wo_entrp">  -1119.06584095 </i>
    <i name="e_0_energy">  -1119.06584095 </i>
   </energy>
  </scstep>
  <scstep>
   <time name="diag">   65.02   65.02</time>
   <time name="diis">   52.63   52.63</time>
   <time name="orth">   33.71   33.71</time>
   <time name="total">  158.57  158.65</time>
   <energy>
    <i name="e_fr_energy">  -1119.06584131 </i>
    <i name="e_wo_entrp">  -1119.06584131 </i>
    <i name="e_0_energy">  -1119.06584131 </i>
   </energy>
  </scstep>
  <scstep>
   <time name="diag">   65.00   65.00</time>
   <time name="diis">   49.12   49.12</time>
   <time name="orth">   33.68   33.68</time>
   <time name="total">  155.06  155.08</time>
   <energy>
    <i name="e_fr_energy">  -1119.06584144 </i>
    <i name="e_wo_entrp">  -1119.06584144 </i>
    <i name="e_0_energy">  -1119.06584144 </i>
   </energy>
  </scstep>
  <scstep>
   <time name="diag">   64.98   64.98</time>
   <time name="diis">   46.64   46.64</time>
   <time name="orth">   33.63   33.62</time>
   <time name="total">  146.29  146.47</time>
   <energy>
    <i name="alphaZ">   5604.44411971 </i>
    <i name="ewald"> -60799.42691191 </i>
    <i name="hartreedc"> -16686.99501377 </i>
    <i name="XCdc">   2962.70151142 </i>
    <i name="pawpsdc"> 113351.92500093 </i>
    <i name="pawaedc">-112250.65908657 </i>
    <i name="eentropy">     -0.00000000 </i>
    <i name="bandstr">  -7084.50325805 </i>
    <i name="atom">  73783.44779670 </i>
    <i name="e_fr_energy">  -1119.06584154 </i>
    <i name="e_wo_entrp">  -1119.06584154 </i>
    <i name="e_0_energy">  -1119.06584154 </i>
   </energy>
  </scstep>
  <structure>
   <crystal>
    <varray name="basis" >
     <v>      11.24820597       0.01753449       0.00152535 </v>
     <v>       0.01765034      11.24414395      -0.00192743 </v>
     <v>       0.00219535      -0.00275784      15.92113994 </v>
    </varray>
    <i name="volume">   2013.64418965 </i>
    <varray name="rec_basis" >
     <v>       0.08890329      -0.00013956      -0.00001228 </v>
     <v>      -0.00013864       0.08893540       0.00001542 </v>
     <v>      -0.00000853       0.00001078       0.06280958 </v>
    </varray>
   </crystal>
   <varray name="positions" >
    <v>       0.00241944       0.25303152       0.13275595 </v>
    <v>       0.01741103       0.25213960       0.62865155 </v>
    <v>       0.00277360       0.74808458       0.13153612 </v>
    <v>       0.99619306       0.74942560       0.62751969 </v>
    <v>       0.50074047       0.24581791       0.12494662 </v>
    <v>       0.48508820       0.24652019       0.63674741 </v>
    <v>       0.50135691       0.75033105       0.12716872 </v>
    <v>       0.50610453       0.75468456       0.63154589 </v>
    <v>       0.01688652       0.25753294       0.36959059 </v>
    <v>       0.00173310       0.25055965       0.86869398 </v>
    <v>       0.00089460       0.74532232       0.36993696 </v>
    <v>       0.99736902       0.75037429       0.86976286 </v>
    <v>       0.48554071       0.24732104       0.36312425 </v>
    <v>       0.50073975       0.24620895       0.87588729 </v>
    <v>       0.50055743       0.75319663       0.36750292 </v>
    <v>       0.50623039       0.75055387       0.87331031 </v>
    <v>       0.25512075       0.99962600       0.13309394 </v>
    <v>       0.24447158       0.00226439       0.63049382 </v>
    <v>       0.25082040       0.50079718       0.13893317 </v>
    <v>       0.24467778       0.49395480       0.62598821 </v>
    <v>       0.74589844       0.99748513       0.12770721 </v>
    <v>       0.75221225       0.98774355       0.63309873 </v>
    <v>       0.74561127       0.50239062       0.12954994 </v>
    <v>       0.75281856       0.51064910       0.63110174 </v>
    <v>       0.24473729       0.00039978       0.36803928 </v>
    <v>       0.25537326       0.00254745       0.86836266 </v>
    <v>       0.23982620       0.49812183       0.37062735 </v>
    <v>       0.25512731       0.49756260       0.86468895 </v>
    <v>       0.75209531       0.98999991       0.36740451 </v>
    <v>       0.74619200       0.99533711       0.87221799 </v>
    <v>       0.75691362       0.50685318       0.36894625 </v>
    <v>       0.74429340       0.50476896       0.87063980 </v>
    <v>       0.00386005       0.99497804       0.49932984 </v>
    <v>       0.98368174       0.49040132       0.00013532 </v>
    <v>       0.48472783       0.99074804       0.49996311 </v>
    <v>       0.50492134       0.50341822       0.00045434 </v>
    <v>       0.49069572       0.51613974       0.49983924 </v>
    <v>       0.25837488       0.26359355       0.00030410 </v>
    <v>       0.25182245       0.25088469       0.49949324 </v>
    <v>       0.25929145       0.76543982       0.99967589 </v>
    <v>       0.24212188       0.74851673       0.49861885 </v>
    <v>       0.75081019       0.24311497       0.99996844 </v>
    <v>       0.77740009       0.25528858       0.50127675 </v>
    <v>       0.74866054       0.75162938       0.99914491 </v>
    <v>       0.75416061       0.74983091       0.50058120 </v>
    <v>       0.24926716       0.74860527       0.74814500 </v>
    <v>       0.74890148       0.24994270       0.24801098 </v>
    <v>       0.74797843       0.24923073       0.75181721 </v>
    <v>       0.75172584       0.74800071       0.24829154 </v>
    <v>       0.00312505       0.00086865       0.24788105 </v>
    <v>       0.00079617       0.00105105       0.75183854 </v>
    <v>       0.00099747       0.50090135       0.74730491 </v>
    <v>       0.49874633       0.99976661       0.24766762 </v>
    <v>       0.50089262       0.99975235       0.75269176 </v>
    <v>       0.49871670       0.49866064       0.25057989 </v>
    <v>       0.50091747       0.49894436       0.74954557 </v>
    <v>       0.98473099       0.99070768       0.00019317 </v>
    <v>       0.00328743       0.50471750       0.49911156 </v>
    <v>       0.50321664       0.00121248       0.00015593 </v>
    <v>       0.24796408       0.24866156       0.24794666 </v>
    <v>       0.24880618       0.24792776       0.75185093 </v>
    <v>       0.24879354       0.74777554       0.25095641 </v>
    <v>       0.75078115       0.74932820       0.75159316 </v>
    <v>       0.00297804       0.50120325       0.25155065 </v>
    <v>       0.11297999       0.13294660       0.25540423 </v>
    <v>       0.11286032       0.13376142       0.74530466 </v>
    <v>       0.11706058       0.63469940       0.25341533 </v>
    <v>       0.11478955       0.63639661       0.74530113 </v>
    <v>       0.61397441       0.13631669       0.24715633 </v>
    <v>       0.61371567       0.13691138       0.75405652 </v>
    <v>       0.61508615       0.63494983       0.25143952 </v>
    <v>       0.61226660       0.63323689       0.74827056 </v>
    <v>       0.38602950       0.36434199       0.24086712 </v>
    <v>       0.38573158       0.36386611       0.75869440 </v>
    <v>       0.38631879       0.86497078       0.24711855 </v>
    <v>       0.38557307       0.86182963       0.75397718 </v>
    <v>       0.88049465       0.36114294       0.25678962 </v>
    <v>       0.88386230       0.36175919       0.74370086 </v>
    <v>       0.88443259       0.86668369       0.24588916 </v>
    <v>       0.88660406       0.86838861       0.75370242 </v>
    <v>       0.36513913       0.11303622       0.25090982 </v>
    <v>       0.36488437       0.11125757       0.74889308 </v>
    <v>       0.36862118       0.61222871       0.25647195 </v>
    <v>       0.36381951       0.61107281       0.74396618 </v>
    <v>       0.86068370       0.11498467       0.25658906 </v>
    <v>       0.86122908       0.11619870       0.74310085 </v>
    <v>       0.86380709       0.61492662       0.24727249 </v>
    <v>       0.86584205       0.61208232       0.75292495 </v>
    <v>       0.13443234       0.38193381       0.24839236 </v>
    <v>       0.13429424       0.38537940       0.75099106 </v>
    <v>       0.13412760       0.88607067       0.24657352 </v>
    <v>       0.13696640       0.88521207       0.75403480 </v>
    <v>       0.63643133       0.38497104       0.24964318 </v>
    <v>       0.63780895       0.38518494       0.74996972 </v>
    <v>       0.63595911       0.88504759       0.24962479 </v>
    <v>       0.63444956       0.88568896       0.75045260 </v>
    <v>       0.35653315       0.39554017       0.00075675 </v>
    <v>       0.36817255       0.39281654       0.49984607 </v>
    <v>       0.35742987       0.89478424       0.99952450 </v>
    <v>       0.35013277       0.89913230       0.50076342 </v>
    <v>       0.84811909       0.39880696       0.99921853 </v>
    <v>       0.85002434       0.40097084       0.50244282 </v>
    <v>       0.84945970       0.89501440       0.00019899 </v>
    <v>       0.85476679       0.89873217       0.50036331 </v>
    <v>       0.14820721       0.10413491       0.49999542 </v>
    <v>       0.14967252       0.60714576       0.50160070 </v>
    <v>       0.64511443       0.10994121       0.99927715 </v>
    <v>       0.64407572       0.60564618       0.00014928 </v>
    <v>       0.64473185       0.60234980       0.49978893 </v>
    <v>       0.10481928       0.35830340       0.99909364 </v>
    <v>       0.11416010       0.35716533       0.50121358 </v>
    <v>       0.10893686       0.85842987       0.99870219 </v>
    <v>       0.10292210       0.85294584       0.50053430 </v>
    <v>       0.60534119       0.35677797       0.00000139 </v>
    <v>       0.60694465       0.85428879       0.00054090 </v>
    <v>       0.61047359       0.86627236       0.49962533 </v>
    <v>       0.38225607       0.14036952       0.99938383 </v>
    <v>       0.41106506       0.14851680       0.50035649 </v>
    <v>       0.38636124       0.63871840       0.99784347 </v>
    <v>       0.39844507       0.65229718       0.50178295 </v>
    <v>       0.89839616       0.15129826       0.99987750 </v>
    <v>       0.90059455       0.14669574       0.50042877 </v>
    <v>       0.90251687       0.64691847       0.99956978 </v>
    <v>       0.89393422       0.64904352       0.50015634 </v>
    <v>       0.00793878       0.01344979       0.12186672 </v>
    <v>       0.00209120       0.99568920       0.62440186 </v>
    <v>       0.01231211       0.50853251       0.11888507 </v>
    <v>       0.00130798       0.50084247       0.62529300 </v>
    <v>       0.50124971       0.00164192       0.12476352 </v>
    <v>       0.50916593       0.00315354       0.62302084 </v>
    <v>       0.50247815       0.50511479       0.12459330 </v>
    <v>       0.50947001       0.48680555       0.62123374 </v>
    <v>       0.00078168       0.99499408       0.37595908 </v>
    <v>       0.00775311       0.01361778       0.87787234 </v>
    <v>       0.00019427       0.49958001       0.37716115 </v>
    <v>       0.01361056       0.50912256       0.87852569 </v>
    <v>       0.50856483       0.00353073       0.37735096 </v>
    <v>       0.50046826       0.00063066       0.87514357 </v>
    <v>       0.50967964       0.48821833       0.37861634 </v>
    <v>       0.50221141       0.50278804       0.87510311 </v>
    <v>       0.25370524       0.25086227       0.37633150 </v>
    <v>       0.23334669       0.23258220       0.88113427 </v>
    <v>       0.25261190       0.75510880       0.37821484 </v>
    <v>       0.24064720       0.73240086       0.87768017 </v>
    <v>       0.70919650       0.24209670       0.39415559 </v>
    <v>       0.75350990       0.25124193       0.87352363 </v>
    <v>       0.75180789       0.75147935       0.37434138 </v>
    <v>       0.74804622       0.74745503       0.87688660 </v>
    <v>       0.23229606       0.22983461       0.11803911 </v>
    <v>       0.25355536       0.25096491       0.62411373 </v>
    <v>       0.24193211       0.73329900       0.11851916 </v>
    <v>       0.25182371       0.75700483       0.62527433 </v>
    <v>       0.75274784       0.25065599       0.12559011 </v>
    <v>       0.70954988       0.23969056       0.60847582 </v>
    <v>       0.74755014       0.74744765       0.12427204 </v>
    <v>       0.75113354       0.75077986       0.62423066 </v>
   </varray>
  </structure>
  <varray name="forces" >
   <v>      -0.01452085      -0.01297810      -0.00058340 </v>
   <v>       0.00502558      -0.01174555       0.00811186 </v>
   <v>       0.01245526      -0.02084608      -0.02361311 </v>
   <v>       0.00042496       0.00373581      -0.00211940 </v>
   <v>       0.01459584      -0.00329706       0.00157267 </v>
   <v>       0.01928652      -0.02657662      -0.03964370 </v>
   <v>      -0.00497785      -0.01153584      -0.01911296 </v>
   <v>      -0.00852588      -0.00260843      -0.01438704 </v>
   <v>       0.00425448      -0.01168911      -0.00695414 </v>
   <v>      -0.00862411      -0.00296646       0.01376862 </v>
   <v>       0.01380848      -0.01576854       0.00478724 </v>
   <v>       0.00407825      -0.00323833       0.02626373 </v>
   <v>       0.01778248      -0.03692271       0.04029379 </v>
   <v>      -0.00002950       0.00540433       0.00702510 </v>
   <v>      -0.01162639       0.00224125       0.03021329 </v>
   <v>      -0.00568400      -0.00859315       0.01188074 </v>
   <v>      -0.02035220      -0.00768938      -0.00873192 </v>
   <v>      -0.00732168       0.00514061      -0.01504870 </v>
   <v>       0.00573469       0.00353922      -0.02516675 </v>
   <v>      -0.00219197      -0.00591691       0.00039716 </v>
   <v>       0.00721607       0.00414614      -0.01097832 </v>
   <v>       0.02876777      -0.00027291      -0.01160305 </v>
   <v>       0.02667356      -0.01613169       0.00158831 </v>
   <v>      -0.00853894       0.04179204      -0.02920813 </v>
   <v>      -0.00814898      -0.01168350       0.01366677 </v>
   <v>      -0.01411025      -0.00897769      -0.00249300 </v>
   <v>      -0.01138830      -0.01548220       0.00761425 </v>
   <v>       0.00215703      -0.00620805       0.00952700 </v>
   <v>       0.01968062       0.01370702       0.01976391 </v>
   <v>       0.00841354      -0.00141008       0.00687411 </v>
   <v>       0.00609894       0.02031041       0.03133933 </v>
   <v>       0.02640191      -0.00446328       0.01306293 </v>
   <v>      -0.04754784       0.01798954      -0.02583186 </v>
   <v>      -0.01336606       0.01346755      -0.05610427 </v>
   <v>      -0.00915717       0.01181633      -0.00617777 </v>
   <v>      -0.01714391       0.00167894       0.00180339 </v>
   <v>       0.00356998       0.02157625      -0.02867142 </v>
   <v>       0.02228542       0.05173213       0.00672870 </v>
   <v>       0.01509003       0.01778896      -0.00245945 </v>
   <v>      -0.04862134      -0.00332635      -0.03142550 </v>
   <v>       0.01748546      -0.00048734      -0.00806139 </v>
   <v>       0.01930411       0.04059081       0.01567710 </v>
   <v>       0.08197562      -0.02257098      -0.04608551 </v>
   <v>       0.03553150      -0.04461023       0.00882783 </v>
   <v>       0.00585131      -0.00260497      -0.01611242 </v>
   <v>       0.00153756      -0.01175259       0.03383737 </v>
   <v>       0.00665747       0.01632206       0.01282515 </v>
   <v>       0.00863839       0.02379381      -0.00944417 </v>
   <v>       0.02000104      -0.01028743      -0.00157883 </v>
   <v>       0.01063577       0.00130702      -0.02260701 </v>
   <v>       0.01179816      -0.02142757       0.02824021 </v>
   <v>       0.00598642       0.01080907       0.02068244 </v>
   <v>       0.02178816      -0.00737308       0.01389114 </v>
   <v>      -0.01067849      -0.03548868      -0.01463767 </v>
   <v>       0.01479456      -0.00742470       0.03576792 </v>
   <v>      -0.02246561       0.00829405      -0.01109408 </v>
   <v>       0.03807213      -0.00045610       0.01138035 </v>
   <v>      -0.01888728       0.00379433      -0.01546888 </v>
   <v>      -0.02140813       0.01840836       0.00546872 </v>
   <v>      -0.01010803       0.00196655      -0.00962981 </v>
   <v>       0.00130741       0.00602578       0.01699961 </v>
   <v>      -0.02731396      -0.00775551       0.00460893 </v>
   <v>      -0.00398252       0.00047267       0.00565331 </v>
   <v>      -0.02193757      -0.00835334       0.01290277 </v>
   <v>       0.01266721      -0.01744077      -0.01332056 </v>
   <v>       0.02259014      -0.02293858       0.01762755 </v>
   <v>       0.01384059       0.01564619       0.00036386 </v>
   <v>       0.00895626      -0.00971863      -0.00731505 </v>
   <v>       0.03309104      -0.01841082      -0.01666541 </v>
   <v>       0.02962242       0.00796529       0.01026516 </v>
   <v>       0.00649068      -0.01421629      -0.00385429 </v>
   <v>       0.00521562      -0.02079698       0.00632378 </v>
   <v>      -0.02468490       0.01376052       0.00377772 </v>
   <v>      -0.01487931       0.02199393      -0.00578403 </v>
   <v>      -0.03860220      -0.01085250      -0.02893373 </v>
   <v>      -0.00107138       0.00972115       0.02799398 </v>
   <v>      -0.03316272      -0.00431011      -0.01282896 </v>
   <v>      -0.03801770      -0.00237109       0.00602280 </v>
   <v>      -0.02195824       0.01198466      -0.00049606 </v>
   <v>      -0.01871546       0.01378609      -0.00592257 </v>
   <v>       0.01728485       0.01707451      -0.01394458 </v>
   <v>       0.02620325       0.01071296       0.01373341 </v>
   <v>       0.00252497       0.00997907      -0.01109520 </v>
   <v>       0.01859020      -0.00005145      -0.00314804 </v>
   <v>      -0.00165741       0.02067614      -0.01461776 </v>
   <v>      -0.00248878       0.01014300       0.01564753 </v>
   <v>       0.00604779       0.05362212      -0.00280619 </v>
   <v>       0.02533846       0.02633794      -0.01346566 </v>
   <v>      -0.01354854      -0.02203444       0.00446434 </v>
   <v>      -0.02278362      -0.02306994      -0.00876981 </v>
   <v>       0.02025450      -0.00712809       0.00766999 </v>
   <v>       0.00254197       0.01369839      -0.01207286 </v>
   <v>       0.00746073      -0.02783812      -0.00027625 </v>
   <v>       0.02517132      -0.03046504      -0.00814956 </v>
   <v>      -0.03047844      -0.03158829      -0.01357816 </v>
   <v>      -0.03408401      -0.00323357       0.01629382 </v>
   <v>       0.00304115       0.01164798       0.00933573 </v>
   <v>      -0.05238835      -0.02310188       0.00083158 </v>
   <v>       0.05928020       0.06399690       0.00689581 </v>
   <v>      -0.09466105      -0.00500880       0.01006704 </v>
   <v>      -0.04013882      -0.04340550       0.00950704 </v>
   <v>      -0.01530482       0.00902890      -0.00134451 </v>
   <v>      -0.01662452      -0.02822518       0.00113485 </v>
   <v>      -0.01053878       0.01983465       0.00431738 </v>
   <v>       0.02738220       0.00416307      -0.00202733 </v>
   <v>       0.01792146       0.01546303       0.00243166 </v>
   <v>      -0.00266488      -0.01657647      -0.00231000 </v>
   <v>      -0.00503200       0.02608669      -0.00396412 </v>
   <v>       0.01058007       0.02236444      -0.00139646 </v>
   <v>       0.04143736       0.01424653       0.00199913 </v>
   <v>       0.01346001      -0.02307077      -0.00753349 </v>
   <v>       0.02463188       0.03627179       0.01079384 </v>
   <v>       0.00682077      -0.03554500       0.00373900 </v>
   <v>      -0.00818834      -0.02772870       0.00073048 </v>
   <v>      -0.00851519       0.00748680      -0.00203720 </v>
   <v>       0.00319802       0.02797984      -0.00394710 </v>
   <v>      -0.00471376       0.00481344      -0.00144067 </v>
   <v>       0.00973086       0.03462797      -0.00508320 </v>
   <v>       0.04373401       0.00642935       0.01180428 </v>
   <v>      -0.04617541       0.03421389       0.00170773 </v>
   <v>      -0.00363311       0.00527562      -0.00407162 </v>
   <v>       0.01483971       0.03034372      -0.00659470 </v>
   <v>      -0.00476049       0.01296134       0.00521854 </v>
   <v>       0.00313305       0.00988298       0.00248429 </v>
   <v>      -0.00140266      -0.00431814      -0.00805727 </v>
   <v>      -0.00194946      -0.00532332       0.00651174 </v>
   <v>      -0.00673879      -0.01589746       0.01435909 </v>
   <v>      -0.00204976      -0.00881797      -0.00240650 </v>
   <v>       0.02196639      -0.00453596      -0.01238075 </v>
   <v>      -0.02670115       0.02188954       0.02351057 </v>
   <v>       0.02663643      -0.00715581       0.01018240 </v>
   <v>       0.00863278      -0.01934600       0.03711831 </v>
   <v>      -0.01119755      -0.01473080       0.00776218 </v>
   <v>      -0.00024321      -0.00304044      -0.00547001 </v>
   <v>      -0.00334062      -0.00370339       0.01154574 </v>
   <v>      -0.02044534      -0.01623121      -0.00475863 </v>
   <v>      -0.02182268       0.01630452      -0.00659519 </v>
   <v>       0.03021292       0.00074598       0.00285779 </v>
   <v>       0.00488393      -0.00502160      -0.00381249 </v>
   <v>       0.01719243      -0.01338944      -0.01961371 </v>
   <v>      -0.00708280      -0.00927156       0.01201493 </v>
   <v>       0.00678497       0.01332974       0.00201206 </v>
   <v>      -0.01287784      -0.00089611       0.00606944 </v>
   <v>      -0.02833045       0.00255948       0.00036093 </v>
   <v>       0.00862610      -0.02010903      -0.02033623 </v>
   <v>      -0.01763310      -0.00625489      -0.02725421 </v>
   <v>      -0.01021978       0.00469886      -0.00991462 </v>
   <v>      -0.00212880      -0.00450698      -0.00118444 </v>
   <v>       0.00131066       0.02339963      -0.00545347 </v>
   <v>      -0.00309570      -0.01604458      -0.00865357 </v>
   <v>      -0.02550950       0.00365451       0.00487610 </v>
   <v>      -0.00960162       0.00042625      -0.01583032 </v>
   <v>      -0.01445922      -0.00469588       0.00574726 </v>
   <v>       0.00812052      -0.01697471       0.05873464 </v>
   <v>      -0.00174681      -0.00784824       0.00716583 </v>
   <v>      -0.02590844      -0.00091935      -0.00150688 </v>
  </varray>
  <varray name="stress" >
   <v>       0.04496333       0.22149908      -0.03752531 </v>
   <v>       0.22149897      -0.09378782      -0.04594881 </v>
   <v>      -0.03752558      -0.04594866       0.15925893 </v>
  </varray>
  <energy>
   <i name="e_fr_energy">  -1119.06584154 </i>
   <i name="e_wo_entrp">  -1119.06584154 </i>
   <i name="e_0_energy">     -0.00000000 </i>
  </energy>
  <time name="totalsc"> 1997.22 2000.18</time>
 </calculation>
 <calculation>
  <scstep>
   <time name="dav">  582.00  582.05</time>
   <time name="total">  589.19  589.30</time>
   <energy>
    <i name="alphaZ">   5604.20362892 </i>
    <i name="ewald"> -60799.89375937 </i>
    <i name="hartreedc"> -16685.74380044 </i>
    <i name="XCdc">   2962.63733339 </i>
    <i name="pawpsdc"> 113351.91267653 </i>
    <i name="pawaedc">-112250.64624741 </i>
    <i name="eentropy">     -0.00000000 </i>
    <i name="bandstr">  -7084.98385392 </i>
    <i name="atom">  73783.44779670 </i>
    <i name="e_fr_energy">  -1119.06622561 </i>
    <i name="e_wo_entrp">  -1119.06622561 </i>
    <i name="e_0_energy">  -1119.06622561 </i>
   </energy>
  </scstep>
  <scstep>
   <time name="diag">   64.85   64.85</time>
   <time name="diis">  105.33  105.34</time>
   <time name="orth">   33.52   33.52</time>
   <time name="total">  210.95  210.99</time>
   <energy>
    <i name="e_fr_energy">  -1119.06973163 </i>
    <i name="e_wo_entrp">  -1119.06973163 </i>
    <i name="e_0_energy">  -1119.06973163 </i>
   </energy>
  </scstep>
  <scstep>
   <time name="diag">   64.79   64.79</time>
   <time name="diis">  109.91  109.92</time>
   <time name="orth">   33.56   33.56</time>
   <time name="total">  215.46  215.54</time>
   <energy>
    <i name="e_fr_energy">  -1119.06956412 </i>
    <i name="e_wo_entrp">  -1119.06956412 </i>
    <i name="e_0_energy">  -1119.06956412 </i>
   </energy>
  </scstep>
  <scstep>
   <time name="diag">   64.82   64.82</time>
   <time name="diis">   97.22   97.23</time>
   <time name="orth">   33.54   33.54</time>
   <time name="total">  202.84  202.93</time>
   <energy>
    <i name="e_fr_energy">  -1119.06929178 </i>
    <i name="e_wo_entrp">  -1119.06929178 </i>
    <i name="e_0_energy">  -1119.06929178 </i>
   </energy>
  </scstep>
  <scstep>
   <time name="diag">   64.74   64.75</time>
   <time name="diis">   89.48   89.49</time>
   <time name="orth">   33.51   33.51</time>
   <time name="total">  195.00  195.34</time>
   <energy>
    <i name="e_fr_energy">  -1119.06918496 </i>
    <i name="e_wo_entrp">  -1119.06918496 </i>
    <i name="e_0_energy">  -1119.06918496 </i>
   </energy>
  </scstep>
  <scstep>
   <time name="diag">   64.77   64.77</time>
   <time name="diis">   64.98   64.99</time>
   <time name="orth">   33.49   33.49</time>
   <time name="total">  170.50  170.59</time>
   <energy>
    <i name="e_fr_energy">  -1119.06918031 </i>
    <i name="e_wo_entrp">  -1119.06918031 </i>
    <i name="e_0_energy">  -1119.06918031 </i>
   </energy>
  </scstep>
  <scstep>
   <time name="diag">   65.01   65.01</time>
   <time name="diis">   64.10   64.11</time>
   <time name="orth">   33.61   33.60</time>
   <time name="total">  169.96  170.03</time>
   <energy>
    <i name="e_fr_energy">  -1119.06918023 </i>
    <i name="e_wo_entrp">  -1119.06918023 </i>
    <i name="e_0_energy">  -1119.06918023 </i>
   </energy>
  </scstep>
  <scstep>
   <time name="diag">   65.03   65.04</time>
   <time name="diis">   62.25   62.26</time>
   <time name="orth">   33.61   33.62</time>
   <time name="total">  161.96  162.08</time>
   <energy>
    <i name="alphaZ">   5604.20362892 </i>
    <i name="ewald"> -60799.89375937 </i>
    <i name="hartreedc"> -16686.51206748 </i>
    <i name="XCdc">   2962.67107162 </i>
    <i name="pawpsdc"> 113313.59669614 </i>
    <i name="pawaedc">-112212.33216289 </i>
    <i name="eentropy">     -0.00000000 </i>
    <i name="bandstr">  -7084.25038401 </i>
    <i name="atom">  73783.44779670 </i>
    <i name="e_fr_energy">  -1119.06918038 </i>
    <i name="e_wo_entrp">  -1119.06918038 </i>
    <i name="e_0_energy">  -1119.06918038 </i>
   </energy>
  </scstep>
  <structure>
   <crystal>
    <varray name="basis" >
     <v>      11.24840403       0.01850218       0.00136108 </v>
     <v>       0.01861868      11.24373563      -0.00212861 </v>
     <v>       0.00196294      -0.00304188      15.92212546 </v>
    </varray>
    <i name="volume">   2013.73060030 </i>
    <varray name="rec_basis" >
     <v>       0.08890174      -0.00014722      -0.00001099 </v>
     <v>      -0.00014629       0.08893866       0.00001701 </v>
     <v>      -0.00000762       0.00001190       0.06280569 </v>
    </varray>
   </crystal>
   <varray name="positions" >
    <v>       0.00235725       0.25297594       0.13275418 </v>
    <v>       0.01743266       0.25208918       0.62867612 </v>
    <v>       0.00282717       0.74799504       0.13146456 </v>
    <v>       0.99619486       0.74944162       0.62751327 </v>
    <v>       0.50080309       0.24580367       0.12495138 </v>
    <v>       0.48517112       0.24640600       0.63662726 </v>
    <v>       0.50133565       0.75028157       0.12711080 </v>
    <v>       0.50606799       0.75467341       0.63150230 </v>
    <v>       0.01690485       0.25748276       0.36956951 </v>
    <v>       0.00169613       0.25054699       0.86873570 </v>
    <v>       0.00095392       0.74525457       0.36995146 </v>
    <v>       0.99738652       0.75036039       0.86984244 </v>
    <v>       0.48561720       0.24716254       0.36324632 </v>
    <v>       0.50073958       0.24623214       0.87590858 </v>
    <v>       0.50050753       0.75320634       0.36759448 </v>
    <v>       0.50620607       0.75051705       0.87334631 </v>
    <v>       0.25503352       0.99959314       0.13306749 </v>
    <v>       0.24444015       0.00228648       0.63044823 </v>
    <v>       0.25084499       0.50081231       0.13885691 </v>
    <v>       0.24466842       0.49392943       0.62598941 </v>
    <v>       0.74592936       0.99750286       0.12767394 </v>
    <v>       0.75233565       0.98774218       0.63306356 </v>
    <v>       0.74572578       0.50232123       0.12955473 </v>
    <v>       0.75278168       0.51082844       0.63101327 </v>
    <v>       0.24470241       0.00034972       0.36808069 </v>
    <v>       0.25531280       0.00250903       0.86835510 </v>
    <v>       0.23977746       0.49805549       0.37065042 </v>
    <v>       0.25513659       0.49753596       0.86471782 </v>
    <v>       0.75217961       0.99005860       0.36746440 </v>
    <v>       0.74622809       0.99533101       0.87223881 </v>
    <v>       0.75693963       0.50694030       0.36904121 </v>
    <v>       0.74440666       0.50474964       0.87067936 </v>
    <v>       0.00365602       0.99505553       0.49925159 </v>
    <v>       0.98362436       0.49045915      -0.00003467 </v>
    <v>       0.48468848       0.99079879       0.49994440 </v>
    <v>       0.50484780       0.50342553       0.00045982 </v>
    <v>       0.49071090       0.51623227       0.49975238 </v>
    <v>       0.25847010       0.26381536       0.00032451 </v>
    <v>       0.25188705       0.25096091       0.49948579 </v>
    <v>       0.25908295       0.76542585       0.99958068 </v>
    <v>       0.24219689       0.74851452       0.49859442 </v>
    <v>       0.75089270       0.24328901       0.00001596 </v>
    <v>       0.77775186       0.25519116       0.50113706 </v>
    <v>       0.74881323       0.75143775       0.99917162 </v>
    <v>       0.75418573       0.74981968       0.50053238 </v>
    <v>       0.24927382       0.74855486       0.74824753 </v>
    <v>       0.74892991       0.25001269       0.24804985 </v>
    <v>       0.74801532       0.24933276       0.75178860 </v>
    <v>       0.75181170       0.74795644       0.24828674 </v>
    <v>       0.00317067       0.00087417       0.24781254 </v>
    <v>       0.00084690       0.00095906       0.75192410 </v>
    <v>       0.00102306       0.50094771       0.74736758 </v>
    <v>       0.49883982       0.99973484       0.24770970 </v>
    <v>       0.50084707       0.99960015       0.75264739 </v>
    <v>       0.49878018       0.49862872       0.25068826 </v>
    <v>       0.50082107       0.49898009       0.74951196 </v>
    <v>       0.98489427       0.99070547       0.00022764 </v>
    <v>       0.00320641       0.50473390       0.49906470 </v>
    <v>       0.50312469       0.00129161       0.00017252 </v>
    <v>       0.24792072       0.24867006       0.24791748 </v>
    <v>       0.24881174       0.24795362       0.75190244 </v>
    <v>       0.24867644       0.74774245       0.25097038 </v>
    <v>       0.75076406       0.74933026       0.75161029 </v>
    <v>       0.00288400       0.50116757       0.25158976 </v>
    <v>       0.11303445       0.13287168       0.25536385 </v>
    <v>       0.11295735       0.13366287       0.74535806 </v>
    <v>       0.11711984       0.63476643       0.25341644 </v>
    <v>       0.11482804       0.63635485       0.74527896 </v>
    <v>       0.61411647       0.13623747       0.24710581 </v>
    <v>       0.61384266       0.13694537       0.75408761 </v>
    <v>       0.61511409       0.63488879       0.25142783 </v>
    <v>       0.61228910       0.63314763       0.74828971 </v>
    <v>       0.38592354       0.36440120       0.24087859 </v>
    <v>       0.38566762       0.36396057       0.75867689 </v>
    <v>       0.38615332       0.86492445       0.24703089 </v>
    <v>       0.38556839       0.86187137       0.75406201 </v>
    <v>       0.88035246       0.36112466       0.25675076 </v>
    <v>       0.88369925       0.36174928       0.74371913 </v>
    <v>       0.88433833       0.86673526       0.24588767 </v>
    <v>       0.88652371       0.86844788       0.75368448 </v>
    <v>       0.36521315       0.11310935       0.25086757 </v>
    <v>       0.36499667       0.11130337       0.74893469 </v>
    <v>       0.36863194       0.61227150       0.25643833 </v>
    <v>       0.36389924       0.61107246       0.74395663 </v>
    <v>       0.86067646       0.11507338       0.25654478 </v>
    <v>       0.86121833       0.11624225       0.74314827 </v>
    <v>       0.86383267       0.61515664       0.24726402 </v>
    <v>       0.86595055       0.61219514       0.75288415 </v>
    <v>       0.13437438       0.38183936       0.24840588 </v>
    <v>       0.13419668       0.38528057       0.75096449 </v>
    <v>       0.13421451       0.88603996       0.24659675 </v>
    <v>       0.13697722       0.88527082       0.75399822 </v>
    <v>       0.63646352       0.38485155       0.24964232 </v>
    <v>       0.63791712       0.38505405       0.74994500 </v>
    <v>       0.63582861       0.88491225       0.24958364 </v>
    <v>       0.63430339       0.88567533       0.75050198 </v>
    <v>       0.35654611       0.39559013       0.00078504 </v>
    <v>       0.36794802       0.39271777       0.49984860 </v>
    <v>       0.35768369       0.89505843       0.99954541 </v>
    <v>       0.34972681       0.89911145       0.50079396 </v>
    <v>       0.84794722       0.39862100       0.99924733 </v>
    <v>       0.84995863       0.40100968       0.50243876 </v>
    <v>       0.84938859       0.89489341       0.00020242 </v>
    <v>       0.85472145       0.89881735       0.50037641 </v>
    <v>       0.14832462       0.10415258       0.49998927 </v>
    <v>       0.14974928       0.60721198       0.50160807 </v>
    <v>       0.64510312       0.10987011       0.99927014 </v>
    <v>       0.64405397       0.60575813       0.00013728 </v>
    <v>       0.64477707       0.60244569       0.49978471 </v>
    <v>       0.10499691       0.35836425       0.99909969 </v>
    <v>       0.11421799       0.35706625       0.50119073 </v>
    <v>       0.10904225       0.85858534       0.99873491 </v>
    <v>       0.10295159       0.85279329       0.50054561 </v>
    <v>       0.60530626       0.35665906       0.00000359 </v>
    <v>       0.60690808       0.85432097       0.00053473 </v>
    <v>       0.61048712       0.86639238       0.49961338 </v>
    <v>       0.38223582       0.14039020       0.99937947 </v>
    <v>       0.41110656       0.14866530       0.50034110 </v>
    <v>       0.38654876       0.63874570       0.99787922 </v>
    <v>       0.39824679       0.65244428       0.50178816 </v>
    <v>       0.89838055       0.15132091       0.99986517 </v>
    <v>       0.90065799       0.14682582       0.50040879 </v>
    <v>       0.90249636       0.64697412       0.99958560 </v>
    <v>       0.89394759       0.64908590       0.50016387 </v>
    <v>       0.00793280       0.01343127       0.12184231 </v>
    <v>       0.00208287       0.99566637       0.62442159 </v>
    <v>       0.01228331       0.50846436       0.11892858 </v>
    <v>       0.00129925       0.50080465       0.62528570 </v>
    <v>       0.50134396       0.00162231       0.12472600 </v>
    <v>       0.50905125       0.00324766       0.62309210 </v>
    <v>       0.50259243       0.50508392       0.12462414 </v>
    <v>       0.50950714       0.48672251       0.62134620 </v>
    <v>       0.00073375       0.99493096       0.37598260 </v>
    <v>       0.00775209       0.01360473       0.87785577 </v>
    <v>       0.00017996       0.49956415       0.37719613 </v>
    <v>       0.01352298       0.50905305       0.87851127 </v>
    <v>       0.50847113       0.00360083       0.37733100 </v>
    <v>       0.50059783       0.00063366       0.87515221 </v>
    <v>       0.50970063       0.48819675       0.37860478 </v>
    <v>       0.50228525       0.50273047       0.87504367 </v>
    <v>       0.25367492       0.25082255       0.37636791 </v>
    <v>       0.23337570       0.23263934       0.88114037 </v>
    <v>       0.25255667       0.75510505       0.37823323 </v>
    <v>       0.24052568       0.73241203       0.87768127 </v>
    <v>       0.70923365       0.24201035       0.39409395 </v>
    <v>       0.75343433       0.25121519       0.87344106 </v>
    <v>       0.75176403       0.75149957       0.37431135 </v>
    <v>       0.74803712       0.74743571       0.87688301 </v>
    <v>       0.23230153       0.22993499       0.11802260 </v>
    <v>       0.25354220       0.25089609       0.62408750 </v>
    <v>       0.24182268       0.73331486       0.11853395 </v>
    <v>       0.25178253       0.75700671       0.62522636 </v>
    <v>       0.75268585       0.25063595       0.12560752 </v>
    <v>       0.70958479       0.23961771       0.60865378 </v>
    <v>       0.74754269       0.74741399       0.12429375 </v>
    <v>       0.75102243       0.75077609       0.62422611 </v>
   </varray>
  </structure>
  <varray name="forces" >
   <v>      -0.01275894      -0.00764758      -0.00450441 </v>
   <v>       0.01065876      -0.01162447       0.02214377 </v>
   <v>       0.00680246      -0.01715507      -0.00764421 </v>
   <v>       0.01002681       0.00755781      -0.00403702 </v>
   <v>       0.01642651      -0.01174216       0.00366910 </v>
   <v>       0.02231764      -0.02637022      -0.01177119 </v>
   <v>      -0.00186366      -0.00115448      -0.01624617 </v>
   <v>      -0.00968569       0.00149316      -0.00175007 </v>
   <v>       0.02092635      -0.01049551      -0.01035859 </v>
   <v>      -0.01267374      -0.01551753      -0.00021924 </v>
   <v>       0.01903131      -0.00492534       0.00779420 </v>
   <v>      -0.01085853       0.00976581       0.00598067 </v>
   <v>       0.00374882      -0.03513132       0.02060208 </v>
   <v>       0.01576711      -0.01179371      -0.00883040 </v>
   <v>      -0.01416156       0.01036208       0.00597696 </v>
   <v>       0.01453677       0.00430468       0.01774247 </v>
   <v>       0.00325149      -0.00229919      -0.00353661 </v>
   <v>      -0.01414913       0.00704143      -0.01451343 </v>
   <v>       0.00861848       0.00121515      -0.00656278 </v>
   <v>      -0.00657731      -0.00764788      -0.00283810 </v>
   <v>      -0.00826981       0.00373084      -0.02008969 </v>
   <v>       0.01850832       0.00950716       0.01616899 </v>
   <v>       0.01243428      -0.01633455       0.00614378 </v>
   <v>      -0.01019625       0.02545695      -0.00737196 </v>
   <v>      -0.00701671      -0.01080568       0.01191630 </v>
   <v>       0.00412413       0.01055905      -0.00564862 </v>
   <v>      -0.00986695      -0.01298273       0.00282488 </v>
   <v>       0.01214651      -0.01687006      -0.00193520 </v>
   <v>       0.00822185       0.00642207      -0.00693460 </v>
   <v>      -0.00872845       0.01077411       0.00861061 </v>
   <v>       0.00176502       0.01562527       0.01722639 </v>
   <v>      -0.00098006      -0.01022495      -0.00733062 </v>
   <v>       0.04287388      -0.03535716       0.01871771 </v>
   <v>      -0.03016728      -0.03752723       0.04401671 </v>
   <v>      -0.07337311      -0.02005867       0.02363979 </v>
   <v>       0.02671367       0.00421419       0.00197317 </v>
   <v>      -0.04586544       0.00711001       0.02758667 </v>
   <v>       0.00578618      -0.02590734      -0.00265401 </v>
   <v>      -0.00233308      -0.00163059       0.00862614 </v>
   <v>       0.08551958       0.07962076       0.03948493 </v>
   <v>      -0.02296363       0.02101982       0.00670471 </v>
   <v>      -0.04199587      -0.02587695      -0.02466995 </v>
   <v>      -0.07151209       0.02680399       0.07293212 </v>
   <v>      -0.05071782       0.01879690       0.00006943 </v>
   <v>       0.00343060       0.02070927       0.00499520 </v>
   <v>       0.01373233       0.01197348      -0.04094080 </v>
   <v>      -0.01543127      -0.01225565       0.00072386 </v>
   <v>      -0.01792591      -0.01222433      -0.02017639 </v>
   <v>      -0.02682871       0.01515182      -0.01732055 </v>
   <v>       0.00366548      -0.01014033      -0.01788563 </v>
   <v>      -0.01123752       0.02180482      -0.00008708 </v>
   <v>      -0.01802409      -0.01636983      -0.03021785 </v>
   <v>      -0.00729641      -0.01749557      -0.03770785 </v>
   <v>       0.01198226       0.03153040       0.02930329 </v>
   <v>      -0.01729358      -0.00887474      -0.01706958 </v>
   <v>       0.02988196      -0.02794612      -0.00258196 </v>
   <v>      -0.02287543      -0.00017184      -0.00329131 </v>
   <v>       0.01544342       0.00228276       0.01740882 </v>
   <v>       0.01264419       0.01417240      -0.00605472 </v>
   <v>       0.01460772      -0.00420283      -0.00560131 </v>
   <v>       0.01614309      -0.01297558       0.00474382 </v>
   <v>       0.00987004       0.00413759       0.01078058 </v>
   <v>      -0.01313622       0.00569975       0.01233368 </v>
   <v>      -0.00088052      -0.00386850       0.00146406 </v>
   <v>       0.00261634      -0.01955217      -0.01157642 </v>
   <v>       0.01855816      -0.01906996       0.01634384 </v>
   <v>      -0.01531201      -0.01280405       0.00148312 </v>
   <v>       0.01315920      -0.00751673       0.00819442 </v>
[...]
       <r>   -16.2721     0.0000    32.0000 </r>
       <r>   -16.1198     0.0000    32.0000 </r>
       <r>   -15.9675     0.0000    32.0000 </r>
       <r>   -15.8152     0.0000    32.0000 </r>
       <r>   -15.6629     0.0000    32.0000 </r>
       <r>   -15.5106     0.0000    32.0000 </r>
       <r>   -15.3582     0.0000    32.0000 </r>
       <r>   -15.2059     0.7462    32.1137 </r>
       <r>   -15.0536    21.8517    35.4420 </r>
       <r>   -14.9013    50.6874    43.1625 </r>
       <r>   -14.7490    44.8337    49.9913 </r>
       <r>   -14.5967    37.2047    55.6582 </r>
       <r>   -14.4444    35.9030    61.1268 </r>
       <r>   -14.2920    45.5527    68.0652 </r>
       <r>   -14.1397    72.5336    79.1132 </r>
       <r>   -13.9874   102.6415    94.7471 </r>
       <r>   -13.8351   104.3058   110.6345 </r>
       <r>   -13.6828    65.4004   120.5960 </r>
       <r>   -13.5305    13.6231   122.6710 </r>
       <r>   -13.3781     8.5583   123.9745 </r>
       <r>   -13.2258     0.1672   124.0000 </r>
       <r>   -13.0735     0.0000   124.0000 </r>
       <r>   -12.9212     0.0000   124.0000 </r>
       <r>   -12.7689     0.0737   124.0112 </r>
       <r>   -12.6166    32.9453   129.0293 </r>
       <r>   -12.4643   125.7684   148.1858 </r>
       <r>   -12.3119   153.0956   171.5046 </r>
       <r>   -12.1596   129.7550   191.2683 </r>
       <r>   -12.0073   109.0954   207.8852 </r>
       <r>   -11.8550    59.3897   216.9312 </r>
       <r>   -11.7027    20.1186   219.9956 </r>
       <r>   -11.5504     0.0290   220.0000 </r>
       <r>   -11.3980     0.0000   220.0000 </r>
       <r>   -11.2457     0.0000   220.0000 </r>
       <r>   -11.0934     0.0000   220.0000 </r>
       <r>   -10.9411     0.0000   220.0000 </r>
       <r>   -10.7888     0.0000   220.0000 </r>
       <r>   -10.6365     0.0000   220.0000 </r>
       <r>   -10.4842     0.0000   220.0000 </r>
       <r>   -10.3318     0.0000   220.0000 </r>
       <r>   -10.1795     0.0000   220.0000 </r>
       <r>   -10.0272     0.0000   220.0000 </r>
       <r>    -9.8749     0.0000   220.0000 </r>
       <r>    -9.7226     0.0000   220.0000 </r>
       <r>    -9.5703     0.0000   220.0000 </r>
       <r>    -9.4179     0.0000   220.0000 </r>
       <r>    -9.2656     0.0000   220.0000 </r>
       <r>    -9.1133     0.0000   220.0000 </r>
       <r>    -8.9610     0.0000   220.0000 </r>
       <r>    -8.8087     0.0000   220.0000 </r>
       <r>    -8.6564     0.0000   220.0000 </r>
       <r>    -8.5041     0.0000   220.0000 </r>
       <r>    -8.3517     0.0000   220.0000 </r>
       <r>    -8.1994     0.0000   220.0000 </r>
       <r>    -8.0471     0.0000   220.0000 </r>
       <r>    -7.8948     0.0000   220.0000 </r>
       <r>    -7.7425     0.0000   220.0000 </r>
       <r>    -7.5902     0.0000   220.0000 </r>
       <r>    -7.4378     0.0000   220.0000 </r>
       <r>    -7.2855     0.0000   220.0000 </r>
       <r>    -7.1332     0.0000   220.0000 </r>
       <r>    -6.9809     0.0000   220.0000 </r>
       <r>    -6.8286     0.0000   220.0000 </r>
       <r>    -6.6763     0.0000   220.0000 </r>
       <r>    -6.5239     0.0000   220.0000 </r>
       <r>    -6.3716     0.0000   220.0000 </r>
       <r>    -6.2193     0.0000   220.0000 </r>
       <r>    -6.0670     0.0000   220.0000 </r>
       <r>    -5.9147     0.0000   220.0000 </r>
       <r>    -5.7624     0.0000   220.0000 </r>
       <r>    -5.6101     0.0000   220.0000 </r>
       <r>    -5.4577     0.0000   220.0000 </r>
       <r>    -5.3054     0.0000   220.0000 </r>
       <r>    -5.1531     0.0000   220.0000 </r>
       <r>    -5.0008     0.0000   220.0000 </r>
       <r>    -4.8485     0.0000   220.0000 </r>
       <r>    -4.6962     0.0000   220.0000 </r>
       <r>    -4.5438     0.0000   220.0000 </r>
       <r>    -4.3915     0.0000   220.0000 </r>
       <r>    -4.2392     0.0000   220.0000 </r>
       <r>    -4.0869     0.0000   220.0000 </r>
       <r>    -3.9346     0.0000   220.0000 </r>
       <r>    -3.7823     0.0000   220.0000 </r>
       <r>    -3.6300     0.0000   220.0000 </r>
       <r>    -3.4776     0.0000   220.0000 </r>
       <r>    -3.3253     0.0000   220.0000 </r>
       <r>    -3.1730     0.0000   220.0000 </r>
       <r>    -3.0207     0.0000   220.0000 </r>
       <r>    -2.8684     0.0000   220.0000 </r>
       <r>    -2.7161     0.0000   220.0000 </r>
       <r>    -2.5637     0.0001   220.0000 </r>
       <r>    -2.4114     3.0329   220.4620 </r>
       <r>    -2.2591    15.9035   222.8843 </r>
       <r>    -2.1068    19.5769   225.8662 </r>
       <r>    -1.9545    25.9053   229.8120 </r>
       <r>    -1.8022    35.1120   235.1601 </r>
       <r>    -1.6499    43.7509   241.8240 </r>
       <r>    -1.4975    57.6754   250.6089 </r>
       <r>    -1.3452    58.2134   259.4757 </r>
       <r>    -1.1929    74.8076   270.8700 </r>
       <r>    -1.0406    76.8658   282.5779 </r>
       <r>    -0.8883    73.7684   293.8139 </r>
       <r>    -0.7360    80.9890   306.1498 </r>
       <r>    -0.5836   100.3880   321.4405 </r>
       <r>    -0.4313   107.1851   337.7664 </r>
       <r>    -0.2790    82.9510   350.4011 </r>
       <r>    -0.1267    56.9199   359.0709 </r>
       <r>     0.0256    46.8086   366.2006 </r>
       <r>     0.1779    52.9529   374.2662 </r>
       <r>     0.3302    49.0968   381.7444 </r>
       <r>     0.4826    52.1975   389.6949 </r>
       <r>     0.6349    53.4944   397.8429 </r>
       <r>     0.7872    47.4433   405.0692 </r>
       <r>     0.9395    49.5839   412.6216 </r>
       <r>     1.0918    67.4676   422.8980 </r>
       <r>     1.2441    78.5119   434.8566 </r>
       <r>     1.3965    85.0070   447.8044 </r>
       <r>     1.5488    86.3269   460.9534 </r>
       <r>     1.7011    74.6675   472.3264 </r>
       <r>     1.8534    67.9879   482.6820 </r>
       <r>     2.0057    34.2454   487.8981 </r>
       <r>     2.1580    30.1165   492.4853 </r>
       <r>     2.3104    19.4715   495.4512 </r>
       <r>     2.4627     3.5974   495.9991 </r>
       <r>     2.6150     0.0059   496.0000 </r>
       <r>     2.7673     0.0000   496.0000 </r>
       <r>     2.9196     0.0000   496.0000 </r>
       <r>     3.0719     0.0000   496.0000 </r>
       <r>     3.2242     0.0000   496.0000 </r>
       <r>     3.3766     0.0000   496.0000 </r>
       <r>     3.5289     0.0000   496.0000 </r>
       <r>     3.6812     0.0000   496.0000 </r>
       <r>     3.8335     0.0000   496.0000 </r>
       <r>     3.9858     0.0000   496.0000 </r>
       <r>     4.1381     0.0000   496.0000 </r>
       <r>     4.2905     0.0000   496.0000 </r>
       <r>     4.4428     0.8152   496.1242 </r>
       <r>     4.5951    18.8494   498.9952 </r>
       <r>     4.7474    44.1659   505.7224 </r>
       <r>     4.8997    30.2825   510.3349 </r>
       <r>     5.0520    37.9500   516.1152 </r>
       <r>     5.2043    65.7899   526.1361 </r>
       <r>     5.3567    71.2932   536.9951 </r>
       <r>     5.5090    56.6575   545.6249 </r>
       <r>     5.6613    66.8758   555.8111 </r>
       <r>     5.8136    70.2211   566.5069 </r>
       <r>     5.9659    92.9999   580.6722 </r>
       <r>     6.1182    91.3910   594.5925 </r>
       <r>     6.2706    63.2135   604.2209 </r>
       <r>     6.4229    52.4758   612.2138 </r>
       <r>     6.5752    24.6768   615.9724 </r>
       <r>     6.7275    15.7534   618.3719 </r>
       <r>     6.8798    22.5889   621.8126 </r>
       <r>     7.0321    17.4407   624.4691 </r>
       <r>     7.1844    15.7295   626.8649 </r>
       <r>     7.3368    13.5244   628.9249 </r>
       <r>     7.4891    15.3103   631.2569 </r>
       <r>     7.6414    17.6075   633.9388 </r>
       <r>     7.7937    24.1677   637.6199 </r>
       <r>     7.9460    20.9024   640.8036 </r>
       <r>     8.0983    22.7822   644.2737 </r>
       <r>     8.2507    24.0588   647.9383 </r>
       <r>     8.4030    26.4392   651.9653 </r>
       <r>     8.5553    22.7993   655.4380 </r>
       <r>     8.7076    19.1218   658.3506 </r>
       <r>     8.8599    27.1145   662.4806 </r>
       <r>     9.0122    36.5335   668.0452 </r>
       <r>     9.1645    44.0285   674.7514 </r>
       <r>     9.3169    33.0539   679.7860 </r>
       <r>     9.4692    42.3915   686.2429 </r>
       <r>     9.6215    44.6726   693.0472 </r>
       <r>     9.7738    52.8885   701.1030 </r>
       <r>     9.9261    62.8585   710.6773 </r>
       <r>    10.0784    65.4955   720.6533 </r>
       <r>    10.2308    60.3114   729.8396 </r>
       <r>    10.3831    59.9521   738.9713 </r>
       <r>    10.5354    56.9393   747.6440 </r>
       <r>    10.6877    60.7785   756.9015 </r>
       <r>    10.8400    51.0404   764.6757 </r>
       <r>    10.9923    21.8084   767.9975 </r>
       <r>    11.1447     0.0164   768.0000 </r>
       <r>    11.2970     0.0000   768.0000 </r>
       <r>    11.4493     0.0000   768.0000 </r>
       <r>    11.6016     0.0000   768.0000 </r>
       <r>    11.7539     0.0000   768.0000 </r>
       <r>    11.9062     0.0000   768.0000 </r>
       <r>    12.0585     0.0000   768.0000 </r>
       <r>    12.2109     0.0000   768.0000 </r>
       <r>    12.3632     0.0000   768.0000 </r>
       <r>    12.5155     0.0000   768.0000 </r>
       <r>    12.6678     0.0000   768.0000 </r>
       <r>    12.8201     0.0000   768.0000 </r>
       <r>    12.9724     0.0000   768.0000 </r>
      </set>
     </set>
    </array>
   </total>
  </dos>
 </calculation>
 <structure name="finalpos" >
  <crystal>
   <varray name="basis" >
    <v>      11.25221924       0.01778597       0.00104724 </v>
    <v>       0.01790634      11.24544489      -0.00162629 </v>
    <v>       0.00151938      -0.00233091      15.91650979 </v>
   </varray>
   <i name="volume">   2014.00971649 </i>
   <varray name="rec_basis" >
    <v>       0.08887158      -0.00014151      -0.00000850 </v>
    <v>      -0.00014056       0.08892512       0.00001304 </v>
    <v>      -0.00000586       0.00000910       0.06282785 </v>
   </varray>
  </crystal>
  <varray name="positions" >
   <v>       0.00158508       0.25271182       0.13267704 </v>
   <v>       0.01778594       0.25159825       0.62949772 </v>
   <v>       0.00261362       0.74768351       0.13126826 </v>
   <v>       0.99629270       0.74937936       0.62788073 </v>
   <v>       0.50175070       0.24577683       0.12572165 </v>
   <v>       0.48664159       0.24576113       0.63679182 </v>
   <v>       0.50194840       0.74963133       0.12708026 </v>
   <v>       0.50569155       0.75538787       0.63167794 </v>
   <v>       0.01705973       0.25654864       0.36859424 </v>
   <v>       0.00154571       0.25077240       0.86872496 </v>
   <v>       0.00110420       0.74476219       0.36961885 </v>
   <v>       0.99724249       0.75095295       0.86994321 </v>
   <v>       0.48649365       0.24632544       0.36293560 </v>
   <v>       0.50158688       0.24634083       0.87538354 </v>
   <v>       0.50014820       0.75410991       0.36773447 </v>
   <v>       0.50724266       0.74995552       0.87349316 </v>
   <v>       0.25412056       0.99981931       0.13256118 </v>
   <v>       0.24453662       0.00261938       0.63113749 </v>
   <v>       0.24981361       0.50010676       0.13903917 </v>
   <v>       0.24421492       0.49349533       0.62598492 </v>
   <v>       0.74592301       0.99721315       0.12738490 </v>
   <v>       0.75209109       0.98879315       0.63410998 </v>
   <v>       0.74698276       0.50118802       0.13071342 </v>
   <v>       0.75235141       0.51287632       0.63011673 </v>
   <v>       0.24473410       0.00002106       0.36726173 </v>
   <v>       0.25450500       0.00291211       0.86865179 </v>
   <v>       0.23926020       0.49702741       0.37072006 </v>
   <v>       0.25436237       0.49679699       0.86443051 </v>
   <v>       0.75193893       0.99084432       0.36664928 </v>
   <v>       0.74638622       0.99528561       0.87273306 </v>
   <v>       0.75641527       0.50861538       0.36974611 </v>
   <v>       0.74553899       0.50399631       0.86961036 </v>
   <v>       0.00395561       0.99544640       0.49918627 </v>
   <v>       0.98311327       0.49026352       0.00008845 </v>
   <v>       0.48294692       0.99129763       0.50004328 </v>
   <v>       0.50597292       0.50378450       0.00054978 </v>
   <v>       0.48939350       0.51724935       0.49975330 </v>
   <v>       0.25973925       0.26531978       0.00045565 </v>
   <v>       0.25167241       0.25083201       0.49943089 </v>
   <v>       0.25980865       0.76590341       0.99951667 </v>
   <v>       0.24126638       0.74897447       0.49861847 </v>
   <v>       0.75045254       0.24335591       0.00001949 </v>
   <v>       0.77921102       0.25461114       0.50083318 </v>
   <v>       0.74921883       0.75088004       0.99926405 </v>
   <v>       0.75367780       0.75192479       0.50057329 </v>
   <v>       0.24915334       0.74820546       0.74849440 </v>
   <v>       0.74894598       0.24954221       0.24854272 </v>
   <v>       0.74823344       0.24916785       0.75150709 </v>
   <v>       0.75159594       0.74800569       0.24839321 </v>
   <v>       0.00320980       0.00048388       0.24748298 </v>
   <v>       0.00090219       0.00099358       0.75215819 </v>
   <v>       0.00054110       0.50078899       0.74717796 </v>
   <v>       0.49827832       0.99901559       0.24712132 </v>
   <v>       0.50053310       0.99943502       0.75345209 </v>
   <v>       0.49877711       0.49844921       0.25090244 </v>
   <v>       0.50094080       0.49877102       0.74923109 </v>
   <v>       0.98515281       0.99104513       0.00030047 </v>
   <v>       0.00266592       0.50474097       0.49920114 </v>
   <v>       0.50364259       0.00156793       0.00028661 </v>
   <v>       0.24812057       0.24848733       0.24771408 </v>
   <v>       0.24929486       0.24794202       0.75199099 </v>
   <v>       0.24839615       0.74707392       0.25078599 </v>
   <v>       0.75064377       0.74967384       0.75158682 </v>
   <v>       0.00231317       0.50069535       0.25179457 </v>
   <v>       0.11521220       0.13069352       0.25493314 </v>
   <v>       0.11501880       0.13195678       0.74623084 </v>
   <v>       0.11833527       0.63260371       0.25337733 </v>
   <v>       0.11630469       0.63419181       0.74531219 </v>
   <v>       0.61646081       0.13306393       0.24774789 </v>
   <v>       0.61590129       0.13464375       0.75338212 </v>
   <v>       0.61689371       0.63266218       0.25259654 </v>
   <v>       0.61386377       0.63150813       0.74817067 </v>
   <v>       0.38436457       0.36572957       0.24133413 </v>
   <v>       0.38447282       0.36515113       0.75765064 </v>
   <v>       0.38382997       0.86548153       0.24538857 </v>
   <v>       0.38371039       0.86265100       0.75619028 </v>
   <v>       0.87847238       0.36309048       0.25642707 </v>
   <v>       0.88219789       0.36332649       0.74415539 </v>
   <v>       0.88206904       0.86887665       0.24491223 </v>
   <v>       0.88504176       0.86998268       0.75362799 </v>
   <v>       0.36699581       0.11463625       0.24903665 </v>
   <v>       0.36656584       0.11290112       0.75059442 </v>
   <v>       0.37004918       0.61332428       0.25598627 </v>
   <v>       0.36543128       0.61229164       0.74405222 </v>
   <v>       0.86343875       0.11720779       0.25648617 </v>
   <v>       0.86355267       0.11785680       0.74386329 </v>
   <v>       0.86554090       0.61726621       0.24855995 </v>
   <v>       0.86746298       0.61437784       0.75140404 </v>
   <v>       0.13263228       0.38011100       0.24875415 </v>
   <v>       0.13284033       0.38366720       0.75069830 </v>
   <v>       0.13248973       0.88394862       0.24615268 </v>
   <v>       0.13563989       0.88351993       0.75424893 </v>
   <v>       0.63458531       0.38206869       0.25061050 </v>
   <v>       0.63639496       0.38301371       0.74871835 </v>
   <v>       0.63329813       0.88242386       0.24931288 </v>
   <v>       0.63261438       0.88417141       0.75098859 </v>
   <v>       0.35662500       0.39807359       0.00153946 </v>
   <v>       0.36513022       0.39513148       0.49989707 </v>
   <v>       0.35827146       0.89552145       0.99967899 </v>
   <v>       0.34705366       0.90092996       0.50085953 </v>
   <v>       0.84771963       0.39821190       0.99945579 </v>
   <v>       0.84714283       0.40258199       0.50200988 </v>
   <v>       0.85067447       0.89391016       0.00057797 </v>
   <v>       0.85291048       0.90203035       0.50070894 </v>
   <v>       0.15028414       0.10262565       0.49961540 </v>
   <v>       0.14949511       0.60698080       0.50168276 </v>
   <v>       0.64621203       0.10917657       0.99932538 </v>
   <v>       0.64610090       0.60443547      -0.00033319 </v>
   <v>       0.64301625       0.60567988       0.49932060 </v>
   <v>       0.10649248       0.36166193       0.99892668 </v>
   <v>       0.11341162       0.35583405       0.50100978 </v>
   <v>       0.11125269       0.86175438       0.99879684 </v>
   <v>       0.10098679       0.85174697       0.50056668 </v>
   <v>       0.60502788       0.35563479       0.00007305 </v>
   <v>       0.60806076       0.85386365       0.00054277 </v>
   <v>       0.60944385       0.86855028       0.49974208 </v>
   <v>       0.38359011       0.14225570       0.99957867 </v>
   <v>       0.41432860       0.15109859       0.50021496 </v>
   <v>       0.39040464       0.64106982       0.99814868 </v>
   <v>       0.39771071       0.65397952       0.50194449 </v>
   <v>       0.89882102       0.15166228       0.99965642 </v>
   <v>       0.90560190       0.15016576       0.49967193 </v>
   <v>       0.90456481       0.64765579       0.99940648 </v>
   <v>       0.89303483       0.65025594       0.50042215 </v>
   <v>       0.00796878       0.01377688       0.12178229 </v>
   <v>       0.00225240       0.99650079       0.62442752 </v>
   <v>       0.00913068       0.50711923       0.11953736 </v>
   <v>       0.00088589       0.49988027       0.62480601 </v>
   <v>       0.50265559       0.00150272       0.12436450 </v>
   <v>       0.50529783       0.00230022       0.62375570 </v>
   <v>       0.50464321       0.50451663       0.12493765 </v>
   <v>       0.51019346       0.48639967       0.62061016 </v>
   <v>       0.00039067       0.99412425       0.37578512 </v>
   <v>       0.00762083       0.01309846       0.87789686 </v>
   <v>      -0.00013546       0.49924081       0.37759068 </v>
   <v>       0.01013543       0.50751899       0.87766838 </v>
   <v>       0.50477261       0.00235030       0.37677395 </v>
   <v>       0.50188679       0.00120493       0.87570438 </v>
   <v>       0.50969480       0.48731795       0.37918664 </v>
   <v>       0.50291255       0.50148945       0.87479068 </v>
   <v>       0.25423210       0.24945499       0.37621921 </v>
   <v>       0.23396919       0.23448049       0.88148730 </v>
   <v>       0.25226821       0.75516740       0.37807904 </v>
   <v>       0.23820200       0.73001614       0.87863639 </v>
   <v>       0.71119455       0.23843287       0.39372620 </v>
   <v>       0.75248025       0.25131848       0.87334198 </v>
   <v>       0.75168192       0.75347865       0.37445946 </v>
   <v>       0.74863723       0.74681941       0.87678513 </v>
   <v>       0.23152971       0.23106796       0.11767059 </v>
   <v>       0.25391523       0.24913616       0.62401413 </v>
   <v>       0.23965509       0.73087489       0.11737734 </v>
   <v>       0.25158149       0.75727569       0.62569297 </v>
   <v>       0.75195646       0.25013844       0.12581414 </v>
   <v>       0.71228015       0.23620104       0.60833452 </v>
   <v>       0.74742803       0.74546212       0.12436473 </v>
   <v>       0.74995347       0.75221879       0.62410324 </v>
  </varray>
 </structure>
</modeling>
