<?xml version="1.0" encoding="ISO-8859-1"?>
<modeling>
 <generator>
  <i name="program" type="string">vasp </i>
  <i name="version" type="string">5.4.1  </i>
  <i name="subversion" type="string">05Feb16 (build Jan 25 2017 20:16:33) complex                          parallel </i>
  <i name="platform" type="string">BWXE6 </i>
  <i name="date" type="string">2019 07 12 </i>
  <i name="time" type="string">12:20:13 </i>
 </generator>
 <incar>
  <i type="string" name="SYSTEM"> STF</i>
  <i type="string" name="PREC">normal</i>
  <i type="string" name="ALGO"> Fast</i>
  <i type="int" name="ISPIN">     2</i>
  <i type="int" name="NELM">    40</i>
  <i type="int" name="NELMIN">     8</i>
  <i type="int" name="IBRION">     2</i>
  <i name="EDIFF">      0.00010000</i>
  <i name="EDIFFG">     -0.03000000</i>
  <i type="int" name="NSW">    30</i>
  <i type="int" name="ISIF">     3</i>
  <i name="ENCUT">    520.00000000</i>
  <i type="int" name="NBANDS">   768</i>
  <v name="MAGMOM">      0.60000000      0.60000000      0.60000000      0.60000000      0.60000000      0.60000000      0.60000000      0.60000000      0.60000000      0.60000000      0.60000000      0.60000000      0.60000000      0.60000000      0.60000000      0.60000000      0.60000000      0.60000000      0.60000000      0.60000000
      0.60000000      0.60000000      0.60000000      0.60000000      0.60000000      0.60000000      0.60000000      0.60000000      0.60000000      0.60000000      0.60000000      0.60000000      0.60000000      0.60000000      0.60000000      0.60000000      0.60000000      0.60000000      0.60000000      0.60000000
      0.60000000      0.60000000      0.60000000      0.60000000      0.60000000      0.60000000      0.60000000      0.60000000      0.60000000      0.60000000      0.60000000      0.60000000      5.00000000      5.00000000      5.00000000      5.00000000      5.00000000      5.00000000      5.00000000      5.00000000
      5.00000000      5.00000000      5.00000000      5.00000000      0.60000000      0.60000000      0.60000000      0.60000000      0.60000000      0.60000000      0.60000000      0.60000000      0.60000000      0.60000000      0.60000000      0.60000000      0.60000000      0.60000000      0.60000000      0.60000000
      0.60000000      0.60000000      0.60000000      0.60000000      0.60000000      0.60000000      0.60000000      0.60000000      0.60000000      0.60000000      0.60000000      0.60000000      0.60000000      0.60000000      0.60000000      0.60000000      0.60000000      0.60000000      0.60000000      0.60000000
      0.60000000      0.60000000      0.60000000      0.60000000      0.60000000      0.60000000      0.60000000      0.60000000      0.60000000      0.60000000      0.60000000      0.60000000      0.60000000      0.60000000      0.60000000      0.60000000      0.60000000      0.60000000      0.60000000      0.60000000
      0.60000000      0.60000000      0.60000000      0.60000000      0.60000000      0.60000000      0.60000000      0.60000000      0.60000000      0.60000000      0.60000000      0.60000000      0.60000000      0.60000000      0.60000000      0.60000000      0.60000000      0.60000000      0.60000000      0.60000000
      0.60000000      0.60000000      0.60000000      0.60000000      0.60000000      0.60000000      0.60000000      0.60000000      0.60000000      0.60000000      0.60000000      0.60000000      0.60000000      0.60000000</v>
  <i type="string" name="LREAL"> Auto</i>
  <i type="int" name="ISMEAR">     0</i>
  <i name="SIGMA">      0.05000000</i>
  <i type="int" name="LMAXMIX">     4</i>
  <v type="int" name="KPOINT_BSE">    -1     0     0     0</v>
  <i type="int" name="NELM">    40</i>
  <i type="logical" name="LDAU"> T  </i>
  <v type="int" name="LDAUTYPE">     2</v>
  <v type="int" name="LDAUL">     0     2     2     0</v>
  <v name="LDAUU">      0.00000000      3.00000000      5.00000000      0.00000000</v>
  <v name="LDAUJ">      0.00000000      0.00000000      0.00000000      0.00000000</v>
  <i type="int" name="LDAUPRINT">     1</i>
 </incar>
 <kpoints>
  <generation param="Monkhorst-Pack">
   <v type="int" name="divisions">       2        2        2 </v>
   <v name="usershift">      0.00000000       0.00000000       0.00000000 </v>
   <v name="genvec1">      0.50000000      -0.00000000       0.00000000 </v>
   <v name="genvec2">      0.00000000       0.50000000       0.00000000 </v>
   <v name="genvec3">      0.00000000      -0.00000000       0.50000000 </v>
   <v name="shift">      0.50000000       0.50000000       0.50000000 </v>
  </generation>
  <varray name="kpointlist" >
   <v>       0.25000000       0.25000000       0.25000000 </v>
   <v>      -0.25000000       0.25000000       0.25000000 </v>
   <v>       0.25000000      -0.25000000       0.25000000 </v>
   <v>      -0.25000000      -0.25000000       0.25000000 </v>
  </varray>
  <varray name="weights" >
   <v>       0.25000000 </v>
   <v>       0.25000000 </v>
   <v>       0.25000000 </v>
   <v>       0.25000000 </v>
  </varray>
 </kpoints>
 <parameters>
  <separator name="general" >
   <i type="string" name="SYSTEM">STF</i>
   <i type="logical" name="LCOMPAT"> F  </i>
  </separator>
  <separator name="electronic" >
   <i type="string" name="PREC">normal</i>
   <i name="ENMAX">    520.00000000</i>
   <i name="ENAUG">    605.39200000</i>
   <i name="EDIFF">      0.00010000</i>
   <i type="int" name="IALGO">    68</i>
   <i type="int" name="IWAVPR">    11</i>
   <i type="int" name="NBANDS">   768</i>
   <i name="NELECT">   1036.00000000</i>
   <i type="int" name="TURBO">     0</i>
   <i type="int" name="IRESTART">     0</i>
   <i type="int" name="NREBOOT">     0</i>
   <i type="int" name="NMIN">     0</i>
   <i name="EREF">      0.00000000</i>
   <separator name="electronic smearing" >
    <i type="int" name="ISMEAR">     0</i>
    <i name="SIGMA">      0.05000000</i>
    <i name="KSPACING">      0.50000000</i>
    <i type="logical" name="KGAMMA"> T  </i>
   </separator>
   <separator name="electronic projectors" >
    <i type="logical" name="LREAL"> T  </i>
    <v name="ROPT">     -0.00050000     -0.00050000     -0.00050000     -0.00050000</v>
    <i type="int" name="LMAXPAW">  -100</i>
    <i type="int" name="LMAXMIX">     4</i>
    <i type="logical" name="NLSPLINE"> F  </i>
   </separator>
   <separator name="electronic startup" >
    <i type="int" name="ISTART">     1</i>
    <i type="int" name="ICHARG">     0</i>
    <i type="int" name="INIWAV">     1</i>
   </separator>
   <separator name="electronic spin" >
    <i type="int" name="ISPIN">     2</i>
    <i type="logical" name="LNONCOLLINEAR"> F  </i>
    <v name="MAGMOM">      0.60000000      0.60000000      0.60000000      0.60000000      0.60000000      0.60000000      0.60000000      0.60000000      0.60000000      0.60000000      0.60000000      0.60000000      0.60000000      0.60000000      0.60000000      0.60000000      0.60000000      0.60000000      0.60000000      0.60000000
      0.60000000      0.60000000      0.60000000      0.60000000      0.60000000      0.60000000      0.60000000      0.60000000      0.60000000      0.60000000      0.60000000      0.60000000      0.60000000      0.60000000      0.60000000      0.60000000      0.60000000      0.60000000      0.60000000      0.60000000
      0.60000000      0.60000000      0.60000000      0.60000000      0.60000000      0.60000000      0.60000000      0.60000000      0.60000000      0.60000000      0.60000000      0.60000000      5.00000000      5.00000000      5.00000000      5.00000000      5.00000000      5.00000000      5.00000000      5.00000000
      5.00000000      5.00000000      5.00000000      5.00000000      0.60000000      0.60000000      0.60000000      0.60000000      0.60000000      0.60000000      0.60000000      0.60000000      0.60000000      0.60000000      0.60000000      0.60000000      0.60000000      0.60000000      0.60000000      0.60000000
      0.60000000      0.60000000      0.60000000      0.60000000      0.60000000      0.60000000      0.60000000      0.60000000      0.60000000      0.60000000      0.60000000      0.60000000      0.60000000      0.60000000      0.60000000      0.60000000      0.60000000      0.60000000      0.60000000      0.60000000
      0.60000000      0.60000000      0.60000000      0.60000000      0.60000000      0.60000000      0.60000000      0.60000000      0.60000000      0.60000000      0.60000000      0.60000000      0.60000000      0.60000000      0.60000000      0.60000000      0.60000000      0.60000000      0.60000000      0.60000000
      0.60000000      0.60000000      0.60000000      0.60000000      0.60000000      0.60000000      0.60000000      0.60000000      0.60000000      0.60000000      0.60000000      0.60000000      0.60000000      0.60000000      0.60000000      0.60000000      0.60000000      0.60000000      0.60000000      0.60000000
      0.60000000      0.60000000      0.60000000      0.60000000      0.60000000      0.60000000      0.60000000      0.60000000      0.60000000      0.60000000      0.60000000      0.60000000      0.60000000      0.60000000</v>
    <i name="NUPDOWN">     -1.00000000</i>
    <i type="logical" name="LSORBIT"> F  </i>
    <v name="SAXIS">      0.00000000      0.00000000      1.00000000</v>
    <i type="logical" name="LSPIRAL"> F  </i>
    <v name="QSPIRAL">      0.00000000      0.00000000      0.00000000</v>
    <i type="logical" name="LZEROZ"> F  </i>
   </separator>
   <separator name="electronic exchange-correlation" >
    <i type="logical" name="LASPH"> F  </i>
    <i type="logical" name="LMETAGGA"> F  </i>
   </separator>
   <separator name="electronic convergence" >
    <i type="int" name="NELM">    40</i>
    <i type="int" name="NELMDL">     0</i>
    <i type="int" name="NELMIN">     8</i>
    <i name="ENINI">    520.00000000</i>
    <separator name="electronic convergence detail" >
     <i type="logical" name="LDIAG"> T  </i>
     <i type="logical" name="LSUBROT"> F  </i>
     <i name="WEIMIN">      0.00100000</i>
     <i name="EBREAK">      0.00000003</i>
     <i name="DEPER">      0.30000000</i>
     <i type="int" name="NRMM">     4</i>
     <i name="TIME">      0.40000000</i>
    </separator>
   </separator>
   <separator name="electronic mixer" >
    <i name="AMIX">      0.40000000</i>
    <i name="BMIX">      1.00000000</i>
    <i name="AMIN">      0.10000000</i>
    <i name="AMIX_MAG">      1.60000000</i>
    <i name="BMIX_MAG">      1.00000000</i>
    <separator name="electronic mixer details" >
     <i type="int" name="IMIX">     4</i>
     <i type="logical" name="MIXFIRST"> F  </i>
     <i type="int" name="MAXMIX">   -45</i>
     <i name="WC">    100.00000000</i>
     <i type="int" name="INIMIX">     1</i>
     <i type="int" name="MIXPRE">     1</i>
     <i type="int" name="MREMOVE">     5</i>
    </separator>
   </separator>
   <separator name="electronic dipolcorrection" >
    <i type="logical" name="LDIPOL"> F  </i>
    <i type="logical" name="LMONO"> F  </i>
    <i type="int" name="IDIPOL">     0</i>
    <i name="EPSILON">      1.00000000</i>
    <v name="DIPOL">   -100.00000000   -100.00000000   -100.00000000</v>
    <i name="EFIELD">      0.00000000</i>
   </separator>
  </separator>
  <separator name="grids" >
   <i type="int" name="NGX">    64</i>
   <i type="int" name="NGY">    64</i>
   <i type="int" name="NGZ">    90</i>
   <i type="int" name="NGXF">   128</i>
   <i type="int" name="NGYF">   128</i>
   <i type="int" name="NGZF">   180</i>
   <i type="logical" name="ADDGRID"> F  </i>
  </separator>
  <separator name="ionic" >
   <i type="int" name="NSW">    30</i>
   <i type="int" name="IBRION">     2</i>
   <i type="int" name="ISIF">     3</i>
   <i name="PSTRESS">      0.00000000</i>
   <i name="EDIFFG">     -0.03000000</i>
   <i type="int" name="NFREE">     1</i>
   <i name="POTIM">      0.50000000</i>
   <i name="SMASS">     -3.00000000</i>
   <i name="SCALEE">      1.00000000</i>
  </separator>
  <separator name="ionic md" >
   <i name="TEBEG">      0.00010000</i>
   <i name="TEEND">      0.00010000</i>
   <i type="int" name="NBLOCK">     1</i>
   <i type="int" name="KBLOCK">    30</i>
   <i type="int" name="NPACO">   256</i>
   <i name="APACO">     16.00000000</i>
  </separator>
  <separator name="symmetry" >
   <i type="int" name="ISYM">     2</i>
   <i name="SYMPREC">      0.00001000</i>
  </separator>
  <separator name="dos" >
   <i type="logical" name="LORBIT"> F  </i>
   <v name="RWIGS">     -1.00000000     -1.00000000     -1.00000000     -1.00000000</v>
   <i type="int" name="NEDOS">   301</i>
   <i name="EMIN">     10.00000000</i>
   <i name="EMAX">    -10.00000000</i>
   <i name="EFERMI">      0.00000000</i>
  </separator>
  <separator name="writing" >
   <i type="int" name="NWRITE">     2</i>
   <i type="logical" name="LWAVE"> T  </i>
   <i type="logical" name="LCHARG"> T  </i>
   <i type="logical" name="LPARD"> F  </i>
   <i type="logical" name="LVTOT"> F  </i>
   <i type="logical" name="LVHAR"> F  </i>
   <i type="logical" name="LELF"> F  </i>
   <i type="logical" name="LOPTICS"> F  </i>
   <v name="STM">      0.00000000      0.00000000      0.00000000      0.00000000      0.00000000      0.00000000      0.00000000</v>
  </separator>
  <separator name="performance" >
   <i type="int" name="NPAR">     2</i>
   <i type="int" name="NSIM">     4</i>
   <i type="int" name="NBLK">    -1</i>
   <i type="logical" name="LPLANE"> T  </i>
   <i type="logical" name="LSCALAPACK"> T  </i>
   <i type="logical" name="LSCAAWARE"> F  </i>
   <i type="logical" name="LSCALU"> F  </i>
   <i type="logical" name="LASYNC"> F  </i>
   <i type="logical" name="LORBITALREAL"> F  </i>
  </separator>
  <separator name="miscellaneous" >
   <i type="int" name="IDIOT">     3</i>
   <i type="logical" name="LMUSIC"> F  </i>
   <v name="POMASS">     87.62000000     47.88000000     55.84700000     16.00000000</v>
   <v name="DARWINR">      0.00000000      0.00000000      0.00000000      0.00000000</v>
   <v name="DARWINV">      1.00000000      1.00000000      1.00000000      1.00000000</v>
   <i type="logical" name="LCORR"> T  </i>
  </separator>
  <i type="logical" name="GGA_COMPAT"> T  </i>
  <i type="logical" name="LBERRY"> F  </i>
  <i type="int" name="ICORELEVEL">     0</i>
  <i type="logical" name="LDAU"> T  </i>
  <v type="int" name="LDAUTYPE">     2</v>
  <v type="int" name="LDAUL">     0</v>
  <v name="LDAUU">      0.00000000</v>
  <v name="LDAUJ">      0.00000000</v>
  <i type="int" name="LDAUPRINT">     1</i>
  <i type="int" name="I_CONSTRAINED_M">     0</i>
  <separator name="electronic exchange-correlation" >
   <i type="string" name="GGA">--</i>
   <i type="int" name="VOSKOWN">     0</i>
   <i type="logical" name="LHFCALC"> F  </i>
   <i type="string" name="PRECFOCK"></i>
   <i type="logical" name="LSYMGRAD"> F  </i>
   <i type="logical" name="LHFONE"> F  </i>
   <i type="logical" name="LRHFCALC"> F  </i>
   <i type="logical" name="LTHOMAS"> F  </i>
   <i type="logical" name="LMODELHF"> F  </i>
   <i name="ENCUT4O">     -1.00000000</i>
   <i type="int" name="EXXOEP">     0</i>
   <i type="int" name="FOURORBIT">     0</i>
   <i name="AEXX">      0.00000000</i>
   <i name="HFALPHA">      0.00000000</i>
   <i name="MCALPHA">      0.00000000</i>
   <i name="ALDAX">      1.00000000</i>
   <i name="AGGAX">      1.00000000</i>
   <i name="ALDAC">      1.00000000</i>
   <i name="AGGAC">      1.00000000</i>
   <i type="int" name="NKREDX">     1</i>
   <i type="int" name="NKREDY">     1</i>
   <i type="int" name="NKREDZ">     1</i>
   <i type="logical" name="SHIFTRED"> F  </i>
   <i type="logical" name="ODDONLY"> F  </i>
   <i type="logical" name="EVENONLY"> F  </i>
   <i type="int" name="LMAXFOCK">     0</i>
   <i type="int" name="NMAXFOCKAE">     0</i>
   <i type="logical" name="LFOCKAEDFT"> F  </i>
   <i name="HFSCREEN">      0.00000000</i>
   <i name="HFSCREENC">      0.00000000</i>
   <i type="int" name="NBANDSGWLOW">     0</i>
  </separator>
  <separator name="vdW DFT" >
   <i type="logical" name="LUSE_VDW"> F  </i>
   <i name="Zab_VDW">     -0.84910000</i>
   <i name="PARAM1">      0.12340000</i>
   <i name="PARAM2">      1.00000000</i>
   <i name="PARAM3">      0.00000000</i>
  </separator>
  <separator name="model GW" >
   <i type="int" name="MODEL_GW">     0</i>
   <i name="MODEL_EPS0">      7.83959772</i>
   <i name="MODEL_ALPHA">      1.00000000</i>
  </separator>
  <separator name="linear response parameters" >
   <i type="logical" name="LEPSILON"> F  </i>
   <i type="logical" name="LRPA"> F  </i>
   <i type="logical" name="LNABLA"> F  </i>
   <i type="logical" name="LVEL"> F  </i>
   <i type="int" name="KINTER">     0</i>
   <i name="CSHIFT">      0.10000000</i>
   <i name="OMEGAMAX">     -1.00000000</i>
   <i name="DEG_THRESHOLD">      0.00200000</i>
  </separator>
  <separator name="orbital magnetization" >
   <i type="logical" name="NUCIND"> F  </i>
   <v name="MAGPOS">      0.00000000      0.00000000      0.00000000</v>
   <i type="logical" name="LNICSALL"> T  </i>
   <i type="logical" name="ORBITALMAG"> F  </i>
   <i type="logical" name="LMAGBLOCH"> F  </i>
   <i type="logical" name="LCHIMAG"> F  </i>
   <i type="logical" name="LGAUGE"> T  </i>
   <i type="int" name="MAGATOM">     0</i>
   <v name="MAGDIPOL">      0.00000000      0.00000000      0.00000000</v>
   <v name="AVECCONST">      0.00000000      0.00000000      0.00000000</v>
  </separator>
  <separator name="response functions" >
   <i type="logical" name="LADDER"> F  </i>
   <i type="logical" name="LFXC"> F  </i>
   <i type="logical" name="LHARTREE"> T  </i>
   <i type="int" name="IBSE">     0</i>
   <v type="int" name="KPOINT">    -1     0     0     0</v>
   <i type="logical" name="LTCTE"> F  </i>
   <i type="logical" name="LTETE"> F  </i>
   <i type="logical" name="LTRIPLET"> F  </i>
   <i type="logical" name="LFXCEPS"> F  </i>
   <i type="logical" name="LFXHEG"> F  </i>
   <i type="int" name="NATURALO">     0</i>
   <i type="logical" name="L2ORDER"> F  </i>
   <i type="logical" name="LUSEW"> F  </i>
   <i name="ENCUTGW">     -2.00000000</i>
   <i name="ENCUTGWSOFT">     -2.00000000</i>
   <i name="ENCUTLF">     -1.00000000</i>
   <i type="int" name="LMAXMP2">    -1</i>
   <i name="SCISSOR">      0.00000000</i>
   <i type="int" name="NOMEGA">     0</i>
   <i type="int" name="NOMEGAR">     0</i>
   <i type="int" name="NBANDSGW">    -1</i>
   <i type="int" name="NBANDSO">    -1</i>
   <i type="int" name="NBANDSV">    -1</i>
   <i type="int" name="NELM">    40</i>
   <i type="int" name="NELMHF">     1</i>
   <i type="int" name="DIM">     3</i>
   <i type="int" name="ANTIRES">     0</i>
   <i name="OMEGAMAX">    -30.00000000</i>
   <i name="OMEGAMIN">    -30.00000000</i>
   <i name="OMEGATL">   -200.00000000</i>
   <i type="int" name="OMEGAGRID">     0</i>
   <i name="CSHIFT">     -0.10000000</i>
   <i type="logical" name="SELFENERGY"> F  </i>
   <i type="logical" name="LSPECTRAL"> F  </i>
   <i type="logical" name="LSPECTRALGW"> F  </i>
   <i type="logical" name="LSINGLES"> F  </i>
   <i type="logical" name="LFERMIGW"> F  </i>
   <i type="logical" name="ODDONLYGW"> F  </i>
   <i type="logical" name="EVENONLYGW"> F  </i>
   <i type="int" name="NKREDLFX">     1</i>
   <i type="int" name="NKREDLFY">     1</i>
   <i type="int" name="NKREDLFZ">     1</i>
   <i type="int" name="MAXMEM">  1800</i>
   <i type="int" name="TELESCOPE">     0</i>
   <i type="int" name="TAUPAR">     1</i>
   <i type="int" name="OMEGAPAR">    -1</i>
   <i name="LAMBDA">      1.00000000</i>
  </separator>
  <separator name="External order field" >
   <i name="OFIELD_KAPPA">      0.00000000</i>
   <v name="OFIELD_K">      0.00000000      0.00000000      0.00000000</v>
   <i name="OFIELD_Q6_NEAR">      0.00000000</i>
   <i name="OFIELD_Q6_FAR">      0.00000000</i>
   <i name="OFIELD_A">      0.00000000</i>
  </separator>
 </parameters>
 <atominfo>
  <atoms>     154 </atoms>
  <types>       4 </types>
  <array name="atoms" >
   <dimension dim="1">ion</dimension>
   <field type="string">element</field>
   <field type="int">atomtype</field>
   <set>
    <rc><c>Sr</c><c>   1</c></rc>
    <rc><c>Sr</c><c>   1</c></rc>
    <rc><c>Sr</c><c>   1</c></rc>
    <rc><c>Sr</c><c>   1</c></rc>
    <rc><c>Sr</c><c>   1</c></rc>
    <rc><c>Sr</c><c>   1</c></rc>
    <rc><c>Sr</c><c>   1</c></rc>
    <rc><c>Sr</c><c>   1</c></rc>
    <rc><c>Sr</c><c>   1</c></rc>
    <rc><c>Sr</c><c>   1</c></rc>
    <rc><c>Sr</c><c>   1</c></rc>
    <rc><c>Sr</c><c>   1</c></rc>
    <rc><c>Sr</c><c>   1</c></rc>
    <rc><c>Sr</c><c>   1</c></rc>
    <rc><c>Sr</c><c>   1</c></rc>
    <rc><c>Sr</c><c>   1</c></rc>
    <rc><c>Sr</c><c>   1</c></rc>
    <rc><c>Sr</c><c>   1</c></rc>
    <rc><c>Sr</c><c>   1</c></rc>
    <rc><c>Sr</c><c>   1</c></rc>
    <rc><c>Sr</c><c>   1</c></rc>
    <rc><c>Sr</c><c>   1</c></rc>
    <rc><c>Sr</c><c>   1</c></rc>
    <rc><c>Sr</c><c>   1</c></rc>
    <rc><c>Sr</c><c>   1</c></rc>
    <rc><c>Sr</c><c>   1</c></rc>
    <rc><c>Sr</c><c>   1</c></rc>
    <rc><c>Sr</c><c>   1</c></rc>
    <rc><c>Sr</c><c>   1</c></rc>
    <rc><c>Sr</c><c>   1</c></rc>
    <rc><c>Sr</c><c>   1</c></rc>
    <rc><c>Sr</c><c>   1</c></rc>
    <rc><c>Ti</c><c>   2</c></rc>
    <rc><c>Ti</c><c>   2</c></rc>
    <rc><c>Ti</c><c>   2</c></rc>
    <rc><c>Ti</c><c>   2</c></rc>
    <rc><c>Ti</c><c>   2</c></rc>
    <rc><c>Ti</c><c>   2</c></rc>
    <rc><c>Ti</c><c>   2</c></rc>
    <rc><c>Ti</c><c>   2</c></rc>
    <rc><c>Ti</c><c>   2</c></rc>
    <rc><c>Ti</c><c>   2</c></rc>
    <rc><c>Ti</c><c>   2</c></rc>
    <rc><c>Ti</c><c>   2</c></rc>
    <rc><c>Ti</c><c>   2</c></rc>
    <rc><c>Ti</c><c>   2</c></rc>
    <rc><c>Ti</c><c>   2</c></rc>
    <rc><c>Ti</c><c>   2</c></rc>
    <rc><c>Ti</c><c>   2</c></rc>
    <rc><c>Ti</c><c>   2</c></rc>
    <rc><c>Ti</c><c>   2</c></rc>
    <rc><c>Ti</c><c>   2</c></rc>
    <rc><c>Fe</c><c>   3</c></rc>
    <rc><c>Fe</c><c>   3</c></rc>
    <rc><c>Fe</c><c>   3</c></rc>
    <rc><c>Fe</c><c>   3</c></rc>
    <rc><c>Fe</c><c>   3</c></rc>
    <rc><c>Fe</c><c>   3</c></rc>
    <rc><c>Fe</c><c>   3</c></rc>
    <rc><c>Fe</c><c>   3</c></rc>
    <rc><c>Fe</c><c>   3</c></rc>
    <rc><c>Fe</c><c>   3</c></rc>
    <rc><c>Fe</c><c>   3</c></rc>
    <rc><c>Fe</c><c>   3</c></rc>
    <rc><c>O </c><c>   4</c></rc>
    <rc><c>O </c><c>   4</c></rc>
    <rc><c>O </c><c>   4</c></rc>
    <rc><c>O </c><c>   4</c></rc>
    <rc><c>O </c><c>   4</c></rc>
    <rc><c>O </c><c>   4</c></rc>
    <rc><c>O </c><c>   4</c></rc>
    <rc><c>O </c><c>   4</c></rc>
    <rc><c>O </c><c>   4</c></rc>
    <rc><c>O </c><c>   4</c></rc>
    <rc><c>O </c><c>   4</c></rc>
    <rc><c>O </c><c>   4</c></rc>
    <rc><c>O </c><c>   4</c></rc>
    <rc><c>O </c><c>   4</c></rc>
    <rc><c>O </c><c>   4</c></rc>
    <rc><c>O </c><c>   4</c></rc>
    <rc><c>O </c><c>   4</c></rc>
    <rc><c>O </c><c>   4</c></rc>
    <rc><c>O </c><c>   4</c></rc>
    <rc><c>O </c><c>   4</c></rc>
    <rc><c>O </c><c>   4</c></rc>
    <rc><c>O </c><c>   4</c></rc>
    <rc><c>O </c><c>   4</c></rc>
    <rc><c>O </c><c>   4</c></rc>
    <rc><c>O </c><c>   4</c></rc>
    <rc><c>O </c><c>   4</c></rc>
    <rc><c>O </c><c>   4</c></rc>
    <rc><c>O </c><c>   4</c></rc>
    <rc><c>O </c><c>   4</c></rc>
    <rc><c>O </c><c>   4</c></rc>
    <rc><c>O </c><c>   4</c></rc>
    <rc><c>O </c><c>   4</c></rc>
    <rc><c>O </c><c>   4</c></rc>
    <rc><c>O </c><c>   4</c></rc>
    <rc><c>O </c><c>   4</c></rc>
    <rc><c>O </c><c>   4</c></rc>
    <rc><c>O </c><c>   4</c></rc>
    <rc><c>O </c><c>   4</c></rc>
    <rc><c>O </c><c>   4</c></rc>
    <rc><c>O </c><c>   4</c></rc>
    <rc><c>O </c><c>   4</c></rc>
    <rc><c>O </c><c>   4</c></rc>
    <rc><c>O </c><c>   4</c></rc>
    <rc><c>O </c><c>   4</c></rc>
    <rc><c>O </c><c>   4</c></rc>
    <rc><c>O </c><c>   4</c></rc>
    <rc><c>O </c><c>   4</c></rc>
    <rc><c>O </c><c>   4</c></rc>
    <rc><c>O </c><c>   4</c></rc>
    <rc><c>O </c><c>   4</c></rc>
    <rc><c>O </c><c>   4</c></rc>
    <rc><c>O </c><c>   4</c></rc>
    <rc><c>O </c><c>   4</c></rc>
    <rc><c>O </c><c>   4</c></rc>
    <rc><c>O </c><c>   4</c></rc>
    <rc><c>O </c><c>   4</c></rc>
    <rc><c>O </c><c>   4</c></rc>
    <rc><c>O </c><c>   4</c></rc>
    <rc><c>O </c><c>   4</c></rc>
    <rc><c>O </c><c>   4</c></rc>
    <rc><c>O </c><c>   4</c></rc>
    <rc><c>O </c><c>   4</c></rc>
    <rc><c>O </c><c>   4</c></rc>
    <rc><c>O </c><c>   4</c></rc>
    <rc><c>O </c><c>   4</c></rc>
    <rc><c>O </c><c>   4</c></rc>
    <rc><c>O </c><c>   4</c></rc>
    <rc><c>O </c><c>   4</c></rc>
    <rc><c>O </c><c>   4</c></rc>
    <rc><c>O </c><c>   4</c></rc>
    <rc><c>O </c><c>   4</c></rc>
    <rc><c>O </c><c>   4</c></rc>
    <rc><c>O </c><c>   4</c></rc>
    <rc><c>O </c><c>   4</c></rc>
    <rc><c>O </c><c>   4</c></rc>
    <rc><c>O </c><c>   4</c></rc>
    <rc><c>O </c><c>   4</c></rc>
    <rc><c>O </c><c>   4</c></rc>
    <rc><c>O </c><c>   4</c></rc>
    <rc><c>O </c><c>   4</c></rc>
    <rc><c>O </c><c>   4</c></rc>
    <rc><c>O </c><c>   4</c></rc>
    <rc><c>O </c><c>   4</c></rc>
    <rc><c>O </c><c>   4</c></rc>
    <rc><c>O </c><c>   4</c></rc>
    <rc><c>O </c><c>   4</c></rc>
    <rc><c>O </c><c>   4</c></rc>
    <rc><c>O </c><c>   4</c></rc>
    <rc><c>O </c><c>   4</c></rc>
    <rc><c>O </c><c>   4</c></rc>
   </set>
  </array>
  <array name="atomtypes" >
   <dimension dim="1">type</dimension>
   <field type="int">atomspertype</field>
   <field type="string">element</field>
   <field>mass</field>
   <field>valence</field>
   <field type="string">pseudopotential</field>
   <set>
    <rc><c>  32</c><c>Sr</c><c>     87.62000000</c><c>     10.00000000</c><c>  PAW_PBE Sr_sv 07Sep2000               </c></rc>
    <rc><c>  20</c><c>Ti</c><c>     47.88000000</c><c>      4.00000000</c><c>  PAW_PBE Ti 08Apr2002                  </c></rc>
    <rc><c>  12</c><c>Fe</c><c>     55.84700000</c><c>      8.00000000</c><c>  PAW_PBE Fe 06Sep2000                  </c></rc>
    <rc><c>  90</c><c>O </c><c>     16.00000000</c><c>      6.00000000</c><c>  PAW_PBE O 08Apr2002                   </c></rc>
   </set>
  </array>
 </atominfo>
 <structure name="initialpos" >
  <crystal>
   <varray name="basis" >
    <v>      11.19542846       0.08571581      -0.00524903 </v>
    <v>       0.08575123      11.19412273       0.01088156 </v>
    <v>      -0.00722929       0.01546617      16.05677932 </v>
   </varray>
   <i name="volume">   2012.16341458 </i>
   <varray name="rec_basis" >
    <v>       0.08932743      -0.00068432       0.00004088 </v>
    <v>      -0.00068404       0.08933792      -0.00008636 </v>
    <v>       0.00002967      -0.00006077       0.06227906 </v>
   </varray>
  </crystal>
  <varray name="positions" >
   <v>       0.00604537       0.24645316       0.11763979 </v>
   <v>       0.00289234       0.24869374       0.63093518 </v>
   <v>       0.00005669       0.75664651       0.11712814 </v>
   <v>       0.00411797       0.75675163       0.63291831 </v>
   <v>       0.49014181       0.24787804       0.12018720 </v>
   <v>       0.48666092       0.23616047       0.63389372 </v>
   <v>       0.50171735       0.74858487       0.12210640 </v>
   <v>       0.50032087       0.76520924       0.63355383 </v>
   <v>       0.01928322       0.23334479       0.37229363 </v>
   <v>       0.00192143       0.25104425       0.87373031 </v>
   <v>       0.00166979       0.75784238       0.37576534 </v>
   <v>       0.00025414       0.75042095       0.87534024 </v>
   <v>       0.48282152       0.23574827       0.36999113 </v>
   <v>       0.49531275       0.24629173       0.87359434 </v>
   <v>       0.49907059       0.75595792       0.37308517 </v>
   <v>       0.49898986       0.75228735       0.87848600 </v>
   <v>       0.25081973       0.99850486       0.12200316 </v>
   <v>       0.25042305       0.00390713       0.62989354 </v>
   <v>       0.25619993       0.50258956       0.11747874 </v>
   <v>       0.25074156       0.49840599       0.63481561 </v>
   <v>       0.74602943       0.98825292       0.11695445 </v>
   <v>       0.74885325       0.99845347       0.63402055 </v>
   <v>       0.75033231       0.50328194       0.12014864 </v>
   <v>       0.76111608       0.50226150       0.63563939 </v>
   <v>       0.25238499       0.99809324       0.37409962 </v>
   <v>       0.25279363       0.00098525       0.87231747 </v>
   <v>       0.25147609       0.49488431       0.36744959 </v>
   <v>       0.24953997       0.50056273       0.87645485 </v>
   <v>       0.74902172       0.99594961       0.37212586 </v>
   <v>       0.74593448       0.99697864       0.87416225 </v>
   <v>       0.73436666       0.51971328       0.37397580 </v>
   <v>       0.75043961       0.50196101       0.87567154 </v>
   <v>       0.75125017       0.74823009       0.24938373 </v>
   <v>       0.49699927       0.99713274       0.24744051 </v>
   <v>       0.00108118       0.00343409       0.49962389 </v>
   <v>       0.25238485       0.75012207       0.24767713 </v>
   <v>       0.00264760       0.49899761       0.75390248 </v>
   <v>       0.25516600       0.75161947       0.50249842 </v>
   <v>       0.49957574       0.99688605       0.99859918 </v>
   <v>       0.74674443       0.74756673       0.75045617 </v>
   <v>       0.49871393       0.99799874       0.50085011 </v>
   <v>       0.99967623       0.00296181       0.75145294 </v>
   <v>       0.99963631       0.50262291       0.99824042 </v>
   <v>       0.25336852       0.74925183       0.75196934 </v>
   <v>       0.50081341       0.49640276       0.24764407 </v>
   <v>       0.24610137       0.24980513       0.50041286 </v>
   <v>       0.24916791       0.25093096       0.99865612 </v>
   <v>       0.50215974       0.50036152       0.00020089 </v>
   <v>       0.74961384       0.25024425       0.99760754 </v>
   <v>       0.99889561       0.99802626       0.99748323 </v>
   <v>       0.74572631       0.25143655       0.75258060 </v>
   <v>       0.00136781       0.00243260       0.24965640 </v>
   <v>       0.25031102       0.25143082       0.75080717 </v>
   <v>       0.48991616       0.48815947       0.48861766 </v>
   <v>       0.01835968       0.51074222       0.51197789 </v>
   <v>       0.24987776       0.75011574       0.00010788 </v>
   <v>       0.49874243       0.00159457       0.75148730 </v>
   <v>       0.00948962       0.51756210       0.23764941 </v>
   <v>       0.73628935       0.24272868       0.51400371 </v>
   <v>       0.24870161       0.24658190       0.24793778 </v>
   <v>       0.73532644       0.23687620       0.23647997 </v>
   <v>       0.49992427       0.49969826       0.76024487 </v>
   <v>       0.75814669       0.76533075       0.49987424 </v>
   <v>       0.75070099       0.74812038       0.99804358 </v>
   <v>       0.10983164       0.13565562       0.75139739 </v>
   <v>       0.50234842       0.99992246       0.87673885 </v>
   <v>       0.11333875       0.63622350       0.74794953 </v>
   <v>       0.61055268       0.13286015       0.25672899 </v>
   <v>       0.61528030       0.13802428       0.74879480 </v>
   <v>       0.61445010       0.63429320       0.24982185 </v>
   <v>       0.88313756       0.86316756       0.74418262 </v>
   <v>       0.38860426       0.36348956       0.25265486 </v>
   <v>       0.38876636       0.37073019       0.73653114 </v>
   <v>       0.39033479       0.85822383       0.24670301 </v>
   <v>       0.38176564       0.86589219       0.75042553 </v>
   <v>       0.86698564       0.13988347       0.26913253 </v>
   <v>       0.88545605       0.86444421       0.25654576 </v>
   <v>       0.36248748       0.10990153       0.24921140 </v>
   <v>       0.36366173       0.11639399       0.74566229 </v>
   <v>       0.36363557       0.60821981       0.24423818 </v>
   <v>       0.36725580       0.61485372       0.74217502 </v>
   <v>       0.86292709       0.89551033       0.49846480 </v>
   <v>       0.86055144       0.11166452       0.75450627 </v>
   <v>       0.86443030       0.61295581       0.75309136 </v>
   <v>       0.13682107       0.38848145       0.75277372 </v>
   <v>       0.88699700       0.36361033       0.75297333 </v>
   <v>       0.13242176       0.88503352       0.74402734 </v>
   <v>       0.65752049       0.38241693       0.26537796 </v>
   <v>       0.63555085       0.38885350       0.74127324 </v>
   <v>       0.63898712       0.88462402       0.24900599 </v>
   <v>       0.63544059       0.88318846       0.74432182 </v>
   <v>       0.86410966       0.59735924       0.26315036 </v>
   <v>       0.36374570       0.38565729       0.50749028 </v>
   <v>       0.09574392       0.36378013       0.48732835 </v>
   <v>       0.36051367       0.88970890       0.50346494 </v>
   <v>       0.85868907       0.39059999       0.99553748 </v>
   <v>       0.51123224       0.48792722       0.12795770 </v>
   <v>       0.86201396       0.88980543       0.99833382 </v>
   <v>       0.13729866       0.88793172       0.25307984 </v>
   <v>       0.13799682       0.11138657       0.00265017 </v>
   <v>       0.11067203       0.86141807       0.50054703 </v>
   <v>       0.13755283       0.60872944       0.00250434 </v>
   <v>       0.88042504       0.16403476       0.48418363 </v>
   <v>       0.64132067       0.11074219       0.00182844 </v>
   <v>       0.62837367       0.12420983       0.48640583 </v>
   <v>       0.63879740       0.60806298       0.00223937 </v>
   <v>       0.00219039       0.99827637       0.37576547 </v>
   <v>       0.10896802       0.35997897       0.99657638 </v>
   <v>       0.61331803       0.63131091       0.73854915 </v>
   <v>       0.11027217       0.86332735       0.00208133 </v>
   <v>       0.11575636       0.63994311       0.26230325 </v>
   <v>       0.64533382       0.40071377       0.50442180 </v>
   <v>       0.61267556       0.86092154       0.00526571 </v>
   <v>       0.61000313       0.85987426       0.50092224 </v>
   <v>       0.38836527       0.13904547       0.00292069 </v>
   <v>       0.38194536       0.13685982       0.50107950 </v>
   <v>       0.38973921       0.63557914       0.00754848 </v>
   <v>       0.42020376       0.63555117       0.51823819 </v>
   <v>       0.89037761       0.14076826       0.99469791 </v>
   <v>       0.09799387       0.38502311       0.27267536 </v>
   <v>       0.89067900       0.63964856       0.99836243 </v>
   <v>       0.88039303       0.59652195       0.48008301 </v>
   <v>       0.98717207       0.00272366       0.12758221 </v>
   <v>       0.99286833       0.01182329       0.62139394 </v>
   <v>       0.99365926       0.49156741       0.12375805 </v>
   <v>       0.99595820       0.49565464       0.62669328 </v>
   <v>       0.50145511       0.00215823       0.12602616 </v>
   <v>       0.50541537       0.00463884       0.62138163 </v>
   <v>       0.14841401       0.61109436       0.49162047 </v>
   <v>       0.11397345       0.13235779       0.24607316 </v>
   <v>       0.36131807       0.38907780       0.00159530 </v>
   <v>       0.00250617       0.99472470       0.87401639 </v>
   <v>       0.36306025       0.88883086       0.00029154 </v>
   <v>       0.00247026       0.50292954       0.87522139 </v>
   <v>       0.49362990       0.99382029       0.37438910 </v>
   <v>       0.60845477       0.35683811       0.00027269 </v>
   <v>       0.50024449       0.50930599       0.37416663 </v>
   <v>       0.49941006       0.50146978       0.87789966 </v>
   <v>       0.25371835       0.25020456       0.37556175 </v>
   <v>       0.25524737       0.25058658       0.87633978 </v>
   <v>       0.13415496       0.11303205       0.49564748 </v>
   <v>       0.25051293       0.74603552       0.87345288 </v>
   <v>       0.26670381       0.74922893       0.37795237 </v>
   <v>       0.74291202       0.25420956       0.87429218 </v>
   <v>       0.73915264       0.74440355       0.37942040 </v>
   <v>       0.74216626       0.74837683       0.87151498 </v>
   <v>       0.24436886       0.26137838       0.12609201 </v>
   <v>       0.23530926       0.25238084       0.62069065 </v>
   <v>       0.24295332       0.75051918       0.12845255 </v>
   <v>       0.24705355       0.74777826       0.62282962 </v>
   <v>       0.76230570       0.25589212       0.12318189 </v>
   <v>       0.76164635       0.24981426       0.62684060 </v>
   <v>       0.76129052       0.74369854       0.12968169 </v>
   <v>       0.75462853       0.73172395       0.61633827 </v>
  </varray>
 </structure>
 <calculation>
  <scstep>
   <time name="dav">  324.66  324.71</time>
   <time name="total">  328.41  328.58</time>
   <energy>
    <i name="alphaZ">   5602.92942913 </i>
    <i name="ewald"> -61447.74761062 </i>
    <i name="hartreedc"> -17076.90169694 </i>
    <i name="XCdc">   3074.03030072 </i>
    <i name="pawpsdc"> 113633.30928001 </i>
    <i name="pawaedc">-112685.61686529 </i>
    <i name="eentropy">     -0.00000000 </i>
    <i name="bandstr">  -7105.34225350 </i>
    <i name="atom">  74916.81196153 </i>
    <i name="e_fr_energy">  -1088.52745496 </i>
    <i name="e_wo_entrp">  -1088.52745496 </i>
    <i name="e_0_energy">  -1088.52745496 </i>
   </energy>
  </scstep>
  <scstep>
   <time name="diag">   33.29   33.31</time>
   <time name="diis">   34.19   34.19</time>
   <time name="orth">   19.24   19.24</time>
   <time name="total">   90.47   90.51</time>
   <energy>
    <i name="e_fr_energy">  -1088.52745122 </i>
    <i name="e_wo_entrp">  -1088.52745122 </i>
    <i name="e_0_energy">  -1088.52745122 </i>
   </energy>
  </scstep>
  <scstep>
   <time name="diag">   33.35   33.37</time>
   <time name="diis">   31.45   31.45</time>
   <time name="orth">   19.16   19.16</time>
   <time name="total">   87.68   87.76</time>
   <energy>
    <i name="e_fr_energy">  -1088.52745118 </i>
    <i name="e_wo_entrp">  -1088.52745118 </i>
    <i name="e_0_energy">  -1088.52745118 </i>
   </energy>
  </scstep>
  <scstep>
   <time name="diag">   33.29   33.29</time>
   <time name="diis">   30.39   30.39</time>
   <time name="orth">   18.92   18.91</time>
   <time name="total">   86.36   86.46</time>
   <energy>
    <i name="e_fr_energy">  -1088.52745316 </i>
    <i name="e_wo_entrp">  -1088.52745316 </i>
    <i name="e_0_energy">  -1088.52745316 </i>
   </energy>
  </scstep>
  <scstep>
   <time name="diag">   33.37   33.39</time>
   <time name="diis">   29.39   29.39</time>
   <time name="orth">   19.16   19.16</time>
   <time name="total">   85.65   85.78</time>
   <energy>
    <i name="e_fr_energy">  -1088.52745495 </i>
    <i name="e_wo_entrp">  -1088.52745495 </i>
    <i name="e_0_energy">  -1088.52745495 </i>
   </energy>
  </scstep>
  <scstep>
   <time name="diag">   33.28   33.28</time>
   <time name="diis">   27.93   27.94</time>
   <time name="orth">   18.94   18.93</time>
   <time name="total">   83.90   84.02</time>
   <energy>
    <i name="e_fr_energy">  -1088.52745549 </i>
    <i name="e_wo_entrp">  -1088.52745549 </i>
    <i name="e_0_energy">  -1088.52745549 </i>
   </energy>
  </scstep>
  <scstep>
   <time name="diag">   33.39   33.41</time>
   <time name="diis">   26.26   26.27</time>
   <time name="orth">   19.26   19.26</time>
   <time name="total">   82.68   82.77</time>
   <energy>
    <i name="e_fr_energy">  -1088.52745561 </i>
    <i name="e_wo_entrp">  -1088.52745561 </i>
    <i name="e_0_energy">  -1088.52745561 </i>
   </energy>
  </scstep>
  <scstep>
   <time name="diag">   33.67   33.69</time>
   <time name="diis">   25.25   25.25</time>
   <time name="orth">   19.23   19.23</time>
   <time name="total">   78.72   78.83</time>
   <energy>
    <i name="alphaZ">   5602.92942913 </i>
    <i name="ewald"> -61447.74761062 </i>
    <i name="hartreedc"> -17076.88359534 </i>
    <i name="XCdc">   3074.02882816 </i>
    <i name="pawpsdc"> 113626.50150899 </i>
    <i name="pawaedc">-112678.79611519 </i>
    <i name="eentropy">     -0.00000000 </i>
    <i name="bandstr">  -7105.37186241 </i>
    <i name="atom">  74916.81196153 </i>
    <i name="e_fr_energy">  -1088.52745576 </i>
    <i name="e_wo_entrp">  -1088.52745576 </i>
    <i name="e_0_energy">  -1088.52745576 </i>
   </energy>
  </scstep>
  <structure>
   <crystal>
    <varray name="basis" >
     <v>      11.19542846       0.08571581      -0.00524903 </v>
     <v>       0.08575123      11.19412273       0.01088156 </v>
     <v>      -0.00722929       0.01546617      16.05677932 </v>
    </varray>
    <i name="volume">   2012.16341458 </i>
    <varray name="rec_basis" >
     <v>       0.08932743      -0.00068432       0.00004088 </v>
     <v>      -0.00068404       0.08933792      -0.00008636 </v>
     <v>       0.00002967      -0.00006077       0.06227906 </v>
    </varray>
   </crystal>
   <varray name="positions" >
    <v>       0.00604537       0.24645316       0.11763979 </v>
    <v>       0.00289234       0.24869374       0.63093518 </v>
    <v>       0.00005669       0.75664651       0.11712814 </v>
    <v>       0.00411797       0.75675163       0.63291831 </v>
    <v>       0.49014181       0.24787804       0.12018720 </v>
    <v>       0.48666092       0.23616047       0.63389372 </v>
    <v>       0.50171735       0.74858487       0.12210640 </v>
    <v>       0.50032087       0.76520924       0.63355383 </v>
    <v>       0.01928322       0.23334479       0.37229363 </v>
    <v>       0.00192143       0.25104425       0.87373031 </v>
    <v>       0.00166979       0.75784238       0.37576534 </v>
    <v>       0.00025414       0.75042095       0.87534024 </v>
    <v>       0.48282152       0.23574827       0.36999113 </v>
    <v>       0.49531275       0.24629173       0.87359434 </v>
    <v>       0.49907059       0.75595792       0.37308517 </v>
    <v>       0.49898986       0.75228735       0.87848600 </v>
    <v>       0.25081973       0.99850486       0.12200316 </v>
    <v>       0.25042305       0.00390713       0.62989354 </v>
    <v>       0.25619993       0.50258956       0.11747874 </v>
    <v>       0.25074156       0.49840599       0.63481561 </v>
    <v>       0.74602943       0.98825292       0.11695445 </v>
    <v>       0.74885325       0.99845347       0.63402055 </v>
    <v>       0.75033231       0.50328194       0.12014864 </v>
    <v>       0.76111608       0.50226150       0.63563939 </v>
    <v>       0.25238499       0.99809324       0.37409962 </v>
    <v>       0.25279363       0.00098525       0.87231747 </v>
    <v>       0.25147609       0.49488431       0.36744959 </v>
    <v>       0.24953997       0.50056273       0.87645485 </v>
    <v>       0.74902172       0.99594961       0.37212586 </v>
    <v>       0.74593448       0.99697864       0.87416225 </v>
    <v>       0.73436666       0.51971328       0.37397580 </v>
    <v>       0.75043961       0.50196101       0.87567154 </v>
    <v>       0.75125017       0.74823009       0.24938373 </v>
    <v>       0.49699927       0.99713274       0.24744051 </v>
    <v>       0.00108118       0.00343409       0.49962389 </v>
    <v>       0.25238485       0.75012207       0.24767713 </v>
    <v>       0.00264760       0.49899761       0.75390248 </v>
    <v>       0.25516600       0.75161947       0.50249842 </v>
    <v>       0.49957574       0.99688605       0.99859918 </v>
    <v>       0.74674443       0.74756673       0.75045617 </v>
    <v>       0.49871393       0.99799874       0.50085011 </v>
    <v>       0.99967623       0.00296181       0.75145294 </v>
    <v>       0.99963631       0.50262291       0.99824042 </v>
    <v>       0.25336852       0.74925183       0.75196934 </v>
    <v>       0.50081341       0.49640276       0.24764407 </v>
    <v>       0.24610137       0.24980513       0.50041286 </v>
    <v>       0.24916791       0.25093096       0.99865612 </v>
    <v>       0.50215974       0.50036152       0.00020089 </v>
    <v>       0.74961384       0.25024425       0.99760754 </v>
    <v>       0.99889561       0.99802626       0.99748323 </v>
    <v>       0.74572631       0.25143655       0.75258060 </v>
    <v>       0.00136781       0.00243260       0.24965640 </v>
    <v>       0.25031102       0.25143082       0.75080717 </v>
    <v>       0.48991616       0.48815947       0.48861766 </v>
    <v>       0.01835968       0.51074222       0.51197789 </v>
    <v>       0.24987776       0.75011574       0.00010788 </v>
    <v>       0.49874243       0.00159457       0.75148730 </v>
    <v>       0.00948962       0.51756210       0.23764941 </v>
    <v>       0.73628935       0.24272868       0.51400371 </v>
    <v>       0.24870161       0.24658190       0.24793778 </v>
    <v>       0.73532644       0.23687620       0.23647997 </v>
    <v>       0.49992427       0.49969826       0.76024487 </v>
    <v>       0.75814669       0.76533075       0.49987424 </v>
    <v>       0.75070099       0.74812038       0.99804358 </v>
    <v>       0.10983164       0.13565562       0.75139739 </v>
    <v>       0.50234842       0.99992246       0.87673885 </v>
    <v>       0.11333875       0.63622350       0.74794953 </v>
    <v>       0.61055268       0.13286015       0.25672899 </v>
    <v>       0.61528030       0.13802428       0.74879480 </v>
    <v>       0.61445010       0.63429320       0.24982185 </v>
    <v>       0.88313756       0.86316756       0.74418262 </v>
    <v>       0.38860426       0.36348956       0.25265486 </v>
    <v>       0.38876636       0.37073019       0.73653114 </v>
    <v>       0.39033479       0.85822383       0.24670301 </v>
    <v>       0.38176564       0.86589219       0.75042553 </v>
    <v>       0.86698564       0.13988347       0.26913253 </v>
    <v>       0.88545605       0.86444421       0.25654576 </v>
    <v>       0.36248748       0.10990153       0.24921140 </v>
    <v>       0.36366173       0.11639399       0.74566229 </v>
    <v>       0.36363557       0.60821981       0.24423818 </v>
    <v>       0.36725580       0.61485372       0.74217502 </v>
    <v>       0.86292709       0.89551033       0.49846480 </v>
    <v>       0.86055144       0.11166452       0.75450627 </v>
    <v>       0.86443030       0.61295581       0.75309136 </v>
    <v>       0.13682107       0.38848145       0.75277372 </v>
    <v>       0.88699700       0.36361033       0.75297333 </v>
    <v>       0.13242176       0.88503352       0.74402734 </v>
    <v>       0.65752049       0.38241693       0.26537796 </v>
    <v>       0.63555085       0.38885350       0.74127324 </v>
    <v>       0.63898712       0.88462402       0.24900599 </v>
    <v>       0.63544059       0.88318846       0.74432182 </v>
    <v>       0.86410966       0.59735924       0.26315036 </v>
    <v>       0.36374570       0.38565729       0.50749028 </v>
    <v>       0.09574392       0.36378013       0.48732835 </v>
    <v>       0.36051367       0.88970890       0.50346494 </v>
    <v>       0.85868907       0.39059999       0.99553748 </v>
    <v>       0.51123224       0.48792722       0.12795770 </v>
    <v>       0.86201396       0.88980543       0.99833382 </v>
    <v>       0.13729866       0.88793172       0.25307984 </v>
    <v>       0.13799682       0.11138657       0.00265017 </v>
    <v>       0.11067203       0.86141807       0.50054703 </v>
    <v>       0.13755283       0.60872944       0.00250434 </v>
    <v>       0.88042504       0.16403476       0.48418363 </v>
    <v>       0.64132067       0.11074219       0.00182844 </v>
    <v>       0.62837367       0.12420983       0.48640583 </v>
    <v>       0.63879740       0.60806298       0.00223937 </v>
    <v>       0.00219039       0.99827637       0.37576547 </v>
    <v>       0.10896802       0.35997897       0.99657638 </v>
    <v>       0.61331803       0.63131091       0.73854915 </v>
    <v>       0.11027217       0.86332735       0.00208133 </v>
    <v>       0.11575636       0.63994311       0.26230325 </v>
    <v>       0.64533382       0.40071377       0.50442180 </v>
    <v>       0.61267556       0.86092154       0.00526571 </v>
    <v>       0.61000313       0.85987426       0.50092224 </v>
    <v>       0.38836527       0.13904547       0.00292069 </v>
    <v>       0.38194536       0.13685982       0.50107950 </v>
    <v>       0.38973921       0.63557914       0.00754848 </v>
    <v>       0.42020376       0.63555117       0.51823819 </v>
    <v>       0.89037761       0.14076826       0.99469791 </v>
    <v>       0.09799387       0.38502311       0.27267536 </v>
    <v>       0.89067900       0.63964856       0.99836243 </v>
    <v>       0.88039303       0.59652195       0.48008301 </v>
    <v>       0.98717207       0.00272366       0.12758221 </v>
    <v>       0.99286833       0.01182329       0.62139394 </v>
    <v>       0.99365926       0.49156741       0.12375805 </v>
    <v>       0.99595820       0.49565464       0.62669328 </v>
    <v>       0.50145511       0.00215823       0.12602616 </v>
    <v>       0.50541537       0.00463884       0.62138163 </v>
    <v>       0.14841401       0.61109436       0.49162047 </v>
    <v>       0.11397345       0.13235779       0.24607316 </v>
    <v>       0.36131807       0.38907780       0.00159530 </v>
    <v>       0.00250617       0.99472470       0.87401639 </v>
    <v>       0.36306025       0.88883086       0.00029154 </v>
    <v>       0.00247026       0.50292954       0.87522139 </v>
    <v>       0.49362990       0.99382029       0.37438910 </v>
    <v>       0.60845477       0.35683811       0.00027269 </v>
    <v>       0.50024449       0.50930599       0.37416663 </v>
    <v>       0.49941006       0.50146978       0.87789966 </v>
    <v>       0.25371835       0.25020456       0.37556175 </v>
    <v>       0.25524737       0.25058658       0.87633978 </v>
    <v>       0.13415496       0.11303205       0.49564748 </v>
    <v>       0.25051293       0.74603552       0.87345288 </v>
    <v>       0.26670381       0.74922893       0.37795237 </v>
    <v>       0.74291202       0.25420956       0.87429218 </v>
    <v>       0.73915264       0.74440355       0.37942040 </v>
    <v>       0.74216626       0.74837683       0.87151498 </v>
    <v>       0.24436886       0.26137838       0.12609201 </v>
    <v>       0.23530926       0.25238084       0.62069065 </v>
    <v>       0.24295332       0.75051918       0.12845255 </v>
    <v>       0.24705355       0.74777826       0.62282962 </v>
    <v>       0.76230570       0.25589212       0.12318189 </v>
    <v>       0.76164635       0.24981426       0.62684060 </v>
    <v>       0.76129052       0.74369854       0.12968169 </v>
    <v>       0.75462853       0.73172395       0.61633827 </v>
   </varray>
  </structure>
  <varray name="forces" >
   <v>       0.01475594      -0.03567957      -0.00454973 </v>
   <v>       0.01180644       0.01900235      -0.00876509 </v>
   <v>       0.00092677      -0.00256412       0.01337043 </v>
   <v>      -0.01740353      -0.00878425      -0.00108634 </v>
   <v>      -0.01002389      -0.02182881       0.00411625 </v>
   <v>       0.03193215       0.02384340       0.00050718 </v>
   <v>      -0.01477457       0.02494684       0.00983468 </v>
   <v>       0.01353528       0.02261502      -0.03622509 </v>
   <v>       0.01680103      -0.03158168      -0.01834713 </v>
   <v>       0.00749825      -0.00764444       0.00121589 </v>
   <v>      -0.00362558       0.00809959       0.01889637 </v>
   <v>       0.00571966      -0.00519853       0.00642198 </v>
   <v>       0.03008649       0.02272273      -0.00404315 </v>
   <v>      -0.00628678       0.00692816      -0.01262377 </v>
   <v>      -0.00131850       0.02340616      -0.02455235 </v>
   <v>      -0.00893001      -0.00087454      -0.01647038 </v>
   <v>      -0.01769954       0.00438123       0.02692484 </v>
   <v>       0.02013741       0.00651199       0.02658856 </v>
   <v>      -0.01189960      -0.02242549       0.01355052 </v>
   <v>      -0.01672931      -0.01258533      -0.00928124 </v>
   <v>       0.00633840       0.01802946       0.03407882 </v>
   <v>       0.00232040      -0.00179997      -0.00259200 </v>
   <v>      -0.00171137      -0.00906589       0.00757326 </v>
   <v>       0.00317071      -0.00922348       0.03049085 </v>
   <v>       0.00418786      -0.01397753      -0.00533946 </v>
   <v>       0.00337847       0.01271545      -0.01035117 </v>
   <v>      -0.02032810      -0.00695680      -0.02747520 </v>
   <v>       0.00756838      -0.02377604      -0.00289875 </v>
   <v>      -0.00766486      -0.00638382       0.00521424 </v>
   <v>      -0.00388270       0.00742305      -0.00203737 </v>
   <v>      -0.01102521      -0.01101428       0.00155198 </v>
   <v>       0.00191504       0.00965271      -0.01572432 </v>
   <v>      -0.06781837       0.02850193       0.02610282 </v>
   <v>      -0.00065143      -0.04068751       0.01882180 </v>
   <v>      -0.07184473      -0.05744328       0.02171287 </v>
   <v>       0.04002423       0.00506314       0.00985975 </v>
   <v>      -0.00499140      -0.01009274      -0.02306837 </v>
   <v>      -0.01443225      -0.03566681      -0.02867037 </v>
   <v>      -0.00667014       0.01988552       0.00343188 </v>
   <v>      -0.03980026      -0.01385936      -0.01559804 </v>
   <v>       0.04773783       0.00128609       0.00733725 </v>
   <v>       0.01144313       0.04644923      -0.03469759 </v>
   <v>       0.00713719      -0.02807115      -0.03077555 </v>
   <v>       0.02192030       0.01311639       0.02823306 </v>
   <v>       0.01292660       0.00938634       0.05022961 </v>
   <v>      -0.01307687       0.05292890       0.02767934 </v>
   <v>      -0.00371309      -0.00672966      -0.02881325 </v>
   <v>      -0.00848702      -0.00448626      -0.05939574 </v>
   <v>      -0.00295558       0.00519231      -0.04255056 </v>
   <v>      -0.01679866       0.05092410       0.00556731 </v>
   <v>       0.00082429      -0.00507096      -0.00097356 </v>
   <v>       0.01437264       0.02240628       0.01504058 </v>
   <v>       0.00030907       0.01451834       0.01288879 </v>
   <v>       0.02377924      -0.05259147      -0.00984709 </v>
   <v>       0.04537489      -0.01490516       0.01555627 </v>
   <v>      -0.00263643      -0.02496608       0.00307254 </v>
   <v>       0.00484295       0.00976595      -0.01056417 </v>
   <v>       0.03583019      -0.02284044      -0.00186149 </v>
   <v>      -0.02405772       0.01305897      -0.00044515 </v>
   <v>       0.00453977       0.00968509       0.00973947 </v>
   <v>      -0.00304620      -0.01591245      -0.04693418 </v>
   <v>      -0.00971250      -0.00965053       0.05636227 </v>
   <v>       0.00320195       0.04804712       0.00832800 </v>
   <v>      -0.02679793      -0.01320735      -0.00982309 </v>
   <v>      -0.00861237      -0.05269984      -0.01303248 </v>
   <v>       0.01771477       0.00293292       0.01521009 </v>
   <v>       0.02624323      -0.00067207       0.00368960 </v>
   <v>       0.00745578       0.01357794       0.01615206 </v>
   <v>       0.00248018      -0.01189115       0.01727555 </v>
   <v>       0.02187141      -0.02119058      -0.01716305 </v>
   <v>       0.00298178       0.02367627       0.01150972 </v>
   <v>       0.00121504       0.05294451      -0.00327353 </v>
   <v>      -0.00138002       0.03388852       0.01047427 </v>
   <v>      -0.03679958       0.01151630      -0.01094804 </v>
   <v>       0.01074259       0.00624201      -0.01462924 </v>
   <v>      -0.00164774      -0.01586266      -0.01328727 </v>
   <v>      -0.04073449      -0.01319872       0.00342103 </v>
   <v>      -0.02105510       0.03307091       0.00328234 </v>
   <v>       0.01335781       0.00096558       0.02057864 </v>
   <v>       0.03698353      -0.03803851       0.03533739 </v>
   <v>      -0.00714438       0.01757915      -0.01084393 </v>
   <v>       0.01812664      -0.01485983      -0.00395199 </v>
   <v>       0.02991171      -0.00039427       0.00092525 </v>
   <v>       0.01888652       0.05089206      -0.01820713 </v>
   <v>      -0.00516666      -0.00644566       0.01661919 </v>
   <v>      -0.02135212       0.02047938      -0.04033307 </v>
   <v>      -0.01194818       0.01078533       0.00358099 </v>
   <v>       0.03050944       0.00666184       0.05291281 </v>
   <v>      -0.00850998      -0.00372320      -0.04999857 </v>
   <v>       0.02247071      -0.05803238       0.01157910 </v>
   <v>       0.00609585      -0.00796038       0.00271488 </v>
   <v>       0.01250640      -0.01794220       0.01960619 </v>
   <v>       0.02513153      -0.01573192       0.00029469 </v>
   <v>      -0.02289340       0.01223749      -0.01827277 </v>
   <v>       0.00415611      -0.05665829       0.02547187 </v>
   <v>       0.01102842       0.00960784       0.01734222 </v>
   <v>      -0.03879269       0.00519881       0.00148150 </v>
   <v>      -0.00829034      -0.02524286      -0.02039922 </v>
   <v>      -0.03535656       0.02114583       0.00793752 </v>
   <v>      -0.01505894       0.00454485       0.00195322 </v>
   <v>       0.01258257      -0.03005871       0.00589957 </v>
   <v>      -0.00632915       0.00885398      -0.02277849 </v>
   <v>      -0.01547769       0.01024341      -0.04430969 </v>
   <v>      -0.01807789      -0.01654872       0.00140476 </v>
   <v>      -0.01607282       0.02770460      -0.04509177 </v>
   <v>       0.00899330       0.01691918      -0.00407345 </v>
   <v>       0.00810022       0.01679027      -0.04121626 </v>
   <v>       0.00866951       0.00926870       0.02412213 </v>
   <v>       0.03425576       0.02474878      -0.03827438 </v>
   <v>      -0.00214889      -0.00810227       0.00994956 </v>
   <v>      -0.01492457      -0.02368702       0.02545399 </v>
   <v>      -0.00434031       0.07054719      -0.01800318 </v>
   <v>       0.00053580       0.00279084      -0.03316383 </v>
   <v>      -0.00140203      -0.00439249      -0.00472758 </v>
   <v>       0.00734244      -0.03240219       0.01074348 </v>
   <v>      -0.02307081      -0.01970143      -0.01510577 </v>
   <v>      -0.01036991      -0.01446961      -0.01168705 </v>
   <v>      -0.00100361       0.03012520      -0.00793193 </v>
   <v>       0.01911871      -0.01780406      -0.01161917 </v>
   <v>       0.01196120      -0.00045279      -0.03764518 </v>
   <v>      -0.02362272      -0.00214892      -0.01515873 </v>
   <v>       0.00129693       0.02630980      -0.04952194 </v>
   <v>      -0.00351806      -0.02602724       0.04049483 </v>
   <v>      -0.00304093      -0.02711363       0.01863061 </v>
   <v>       0.02275174      -0.00370571       0.00496311 </v>
   <v>      -0.01848398       0.01873107       0.00934676 </v>
   <v>       0.02303072      -0.01906355      -0.01312608 </v>
   <v>      -0.01047883       0.02697626      -0.00097287 </v>
   <v>       0.05656793       0.04113495      -0.01007857 </v>
   <v>      -0.00167923      -0.01160331       0.02528873 </v>
   <v>      -0.00815022      -0.01225161       0.00479693 </v>
   <v>       0.00720048      -0.02081490       0.00550645 </v>
   <v>       0.00733536       0.00088941       0.00141668 </v>
   <v>       0.00236277       0.00099733       0.02626804 </v>
   <v>      -0.00625587       0.02977053      -0.00851554 </v>
   <v>       0.00178357       0.00820517       0.00977715 </v>
   <v>       0.01039474       0.01043363      -0.02513923 </v>
   <v>       0.00131071      -0.00620634       0.01999121 </v>
   <v>      -0.00011355      -0.00627425       0.01545056 </v>
   <v>      -0.00394991       0.00673227       0.03411145 </v>
   <v>       0.01850375       0.03121378       0.02708860 </v>
   <v>      -0.01309453      -0.01018921       0.00229191 </v>
   <v>      -0.03515239      -0.01205512       0.03067504 </v>
   <v>      -0.00706151      -0.00288034       0.00006041 </v>
   <v>      -0.02401023      -0.01328326       0.00099996 </v>
   <v>       0.00090440       0.00657487       0.01479318 </v>
   <v>       0.00260924       0.01464093       0.02486885 </v>
   <v>       0.03569106      -0.02086185      -0.03872282 </v>
   <v>      -0.00084282      -0.02379607      -0.00409473 </v>
   <v>      -0.00370050       0.00159760      -0.00919332 </v>
   <v>      -0.01243777       0.01001002       0.03776064 </v>
   <v>       0.00403241      -0.02944944       0.04124966 </v>
   <v>      -0.03045596       0.02456773       0.01877895 </v>
   <v>      -0.00874437      -0.01178456      -0.02096017 </v>
  </varray>
  <varray name="stress" >
   <v>       0.05285396       0.02209123       0.09326384 </v>
   <v>       0.02209132      -0.12638333       0.16404462 </v>
   <v>       0.09326393       0.16404462       0.00475754 </v>
  </varray>
  <energy>
   <i name="e_fr_energy">  -1088.52745576 </i>
   <i name="e_wo_entrp">  -1088.52745576 </i>
   <i name="e_0_energy">     -0.00000000 </i>
  </energy>
  <time name="totalsc"> 1076.20 1078.94</time>
 </calculation>
 <calculation>
  <scstep>
   <time name="dav">  291.68  291.71</time>
   <time name="total">  295.41  295.53</time>
   <energy>
    <i name="alphaZ">   5603.08106704 </i>
    <i name="ewald"> -61449.23285385 </i>
    <i name="hartreedc"> -17076.05267420 </i>
    <i name="XCdc">   3074.06740128 </i>
    <i name="pawpsdc"> 113626.48839588 </i>
    <i name="pawaedc">-112678.78326598 </i>
    <i name="eentropy">     -0.00000000 </i>
    <i name="bandstr">  -7104.90650763 </i>
    <i name="atom">  74916.81196153 </i>
    <i name="e_fr_energy">  -1088.52647593 </i>
    <i name="e_wo_entrp">  -1088.52647593 </i>
    <i name="e_0_energy">  -1088.52647593 </i>
   </energy>
  </scstep>
  <scstep>
   <time name="diag">   33.33   33.35</time>
   <time name="diis">   51.82   51.85</time>
   <time name="orth">   19.39   19.41</time>
   <time name="total">  108.29  108.36</time>
   <energy>
    <i name="e_fr_energy">  -1088.53230480 </i>
    <i name="e_wo_entrp">  -1088.53230480 </i>
    <i name="e_0_energy">  -1088.53230480 </i>
   </energy>
  </scstep>
  <scstep>
   <time name="diag">   33.47   33.55</time>
   <time name="diis">   53.94   53.94</time>
   <time name="orth">   19.23   19.24</time>
   <time name="total">  110.39  110.49</time>
   <energy>
    <i name="e_fr_energy">  -1088.53257995 </i>
    <i name="e_wo_entrp">  -1088.53257995 </i>
    <i name="e_0_energy">  -1088.53257995 </i>
   </energy>
  </scstep>
  <scstep>
   <time name="diag">   33.46   33.48</time>
   <time name="diis">   47.86   47.86</time>
   <time name="orth">   19.25   19.26</time>
   <time name="total">  104.32  104.39</time>
   <energy>
    <i name="e_fr_energy">  -1088.53221996 </i>
    <i name="e_wo_entrp">  -1088.53221996 </i>
    <i name="e_0_energy">  -1088.53221996 </i>
   </energy>
  </scstep>
  <scstep>
   <time name="diag">   33.49   33.50</time>
   <time name="diis">   44.84   44.85</time>
   <time name="orth">   19.25   19.25</time>
   <time name="total">  101.32  101.38</time>
   <energy>
    <i name="e_fr_energy">  -1088.53211829 </i>
    <i name="e_wo_entrp">  -1088.53211829 </i>
    <i name="e_0_energy">  -1088.53211829 </i>
   </energy>
  </scstep>
  <scstep>
   <time name="diag">   33.47   33.48</time>
   <time name="diis">   32.73   32.73</time>
   <time name="orth">   19.26   19.26</time>
   <time name="total">   89.21   89.28</time>
   <energy>
    <i name="e_fr_energy">  -1088.53211785 </i>
    <i name="e_wo_entrp">  -1088.53211785 </i>
    <i name="e_0_energy">  -1088.53211785 </i>
   </energy>
  </scstep>
  <scstep>
   <time name="diag">   33.49   33.51</time>
   <time name="diis">   32.23   32.25</time>
   <time name="orth">   19.36   19.36</time>
   <time name="total">   88.82   88.89</time>
   <energy>
    <i name="e_fr_energy">  -1088.53211865 </i>
    <i name="e_wo_entrp">  -1088.53211865 </i>
    <i name="e_0_energy">  -1088.53211865 </i>
   </energy>
  </scstep>
  <scstep>
   <time name="diag">   33.52   33.52</time>
   <time name="diis">   31.84   31.85</time>
   <time name="orth">   19.40   19.40</time>
   <time name="total">   85.34   85.43</time>
   <energy>
    <i name="alphaZ">   5603.08106704 </i>
    <i name="ewald"> -61449.23285385 </i>
    <i name="hartreedc"> -17075.48928515 </i>
    <i name="XCdc">   3074.04232144 </i>
    <i name="pawpsdc"> 113623.64958235 </i>
    <i name="pawaedc">-112675.96258022 </i>
    <i name="eentropy">     -0.00000000 </i>
    <i name="bandstr">  -7105.43233279 </i>
    <i name="atom">  74916.81196153 </i>
    <i name="e_fr_energy">  -1088.53211964 </i>
    <i name="e_wo_entrp">  -1088.53211964 </i>
    <i name="e_0_energy">  -1088.53211964 </i>
   </energy>
  </scstep>
  <structure>
   <crystal>
    <varray name="basis" >
     <v>      11.19566181       0.08580851      -0.00483272 </v>
     <v>       0.08585071      11.19356758       0.01160719 </v>
     <v>      -0.00664015       0.01650163      16.05681011 </v>
    </varray>
    <i name="volume">   2012.10895878 </i>
    <varray name="rec_basis" >
     <v>       0.08932558      -0.00068513       0.00003764 </v>
     <v>      -0.00068480       0.08934237      -0.00009210 </v>
     <v>       0.00002738      -0.00006479       0.06227895 </v>
    </varray>
   </crystal>
   <varray name="positions" >
    <v>       0.00611013       0.24629892       0.11762624 </v>
    <v>       0.00294258       0.24877529       0.63090881 </v>
    <v>       0.00006079       0.75663537       0.11716832 </v>
    <v>       0.00404326       0.75671435       0.63291505 </v>
    <v>       0.49009934       0.24778427       0.12019962 </v>
    <v>       0.48679774       0.23626218       0.63389522 </v>
    <v>       0.50165287       0.74869283       0.12213585 </v>
    <v>       0.50037838       0.76530641       0.63344495 </v>
    <v>       0.01935663       0.23320820       0.37223862 </v>
    <v>       0.00195400       0.25101105       0.87373400 </v>
    <v>       0.00165394       0.75787733       0.37582209 </v>
    <v>       0.00027898       0.75039833       0.87535956 </v>
    <v>       0.48295042       0.23584523       0.36997895 </v>
    <v>       0.49528541       0.24632185       0.87355638 </v>
    <v>       0.49906409       0.75605894       0.37301133 </v>
    <v>       0.49895137       0.75228394       0.87843650 </v>
    <v>       0.25074336       0.99852421       0.12208401 </v>
    <v>       0.25050967       0.00393442       0.62997343 </v>
    <v>       0.25614942       0.50249324       0.11751950 </v>
    <v>       0.25066986       0.49835234       0.63478773 </v>
    <v>       0.74605621       0.98833027       0.11705679 </v>
    <v>       0.74886330       0.99844565       0.63401277 </v>
    <v>       0.75032525       0.50324289       0.12017142 </v>
    <v>       0.76113011       0.50222151       0.63573103 </v>
    <v>       0.25240348       0.99803288       0.37408363 </v>
    <v>       0.25280775       0.00103999       0.87228633 </v>
    <v>       0.25138866       0.49485511       0.36736703 </v>
    <v>       0.24957337       0.50046002       0.87644622 </v>
    <v>       0.74898891       0.99592232       0.37214153 </v>
    <v>       0.74591750       0.99701077       0.87415610 </v>
    <v>       0.73431951       0.51966616       0.37398048 </v>
    <v>       0.75044751       0.50200262       0.87562427 </v>
    <v>       0.75095703       0.74835506       0.24946197 </v>
    <v>       0.49699784       0.99695732       0.24749717 </v>
    <v>       0.00077352       0.00318879       0.49968919 </v>
    <v>       0.25255718       0.75014253       0.24770679 </v>
    <v>       0.00262637       0.49895437       0.75383319 </v>
    <v>       0.25510493       0.75146634       0.50241236 </v>
    <v>       0.49954635       0.99697196       0.99860943 </v>
    <v>       0.74657334       0.74750838       0.75040929 </v>
    <v>       0.49891962       0.99800267       0.50087222 </v>
    <v>       0.99972394       0.00316177       0.75134857 </v>
    <v>       0.99966794       0.50250182       0.99814805 </v>
    <v>       0.25346261       0.74930751       0.75205416 </v>
    <v>       0.50086891       0.49644258       0.24779498 </v>
    <v>       0.24604333       0.25003357       0.50049584 </v>
    <v>       0.24915207       0.25090219       0.99856956 </v>
    <v>       0.50212320       0.50034271       0.00002244 </v>
    <v>       0.74960085       0.25026690       0.99747968 </v>
    <v>       0.99882155       0.99824627       0.99749979 </v>
    <v>       0.74573003       0.25141467       0.75257769 </v>
    <v>       0.00142904       0.00252863       0.24970155 </v>
    <v>       0.25031190       0.25149332       0.75084585 </v>
    <v>       0.49002035       0.48793207       0.48858826 </v>
    <v>       0.01855574       0.51067642       0.51202474 </v>
    <v>       0.24986723       0.75000822       0.00011718 </v>
    <v>       0.49876296       0.00163654       0.75145554 </v>
    <v>       0.00964478       0.51746249       0.23764393 </v>
    <v>       0.73618524       0.24278576       0.51400229 </v>
    <v>       0.24872088       0.24662345       0.24796702 </v>
    <v>       0.73531375       0.23680791       0.23633900 </v>
    <v>       0.49988285       0.49965675       0.76041423 </v>
    <v>       0.75815892       0.76553769       0.49989912 </v>
    <v>       0.75058592       0.74806438       0.99801407 </v>
    <v>       0.10979624       0.13542883       0.75135838 </v>
    <v>       0.50242470       0.99993445       0.87678457 </v>
    <v>       0.11345187       0.63621972       0.74796066 </v>
    <v>       0.61058440       0.13291836       0.25677749 </v>
    <v>       0.61529142       0.13797288       0.74884674 </v>
    <v>       0.61454501       0.63420122       0.24977038 </v>
    <v>       0.88314965       0.86326946       0.74421713 </v>
    <v>       0.38860774       0.36371772       0.25264487 </v>
    <v>       0.38875932       0.37087625       0.73656251 </v>
    <v>       0.39017580       0.85827473       0.24667003 </v>
    <v>       0.38181170       0.86591880       0.75038157 </v>
    <v>       0.86697903       0.13981521       0.26909265 </v>
    <v>       0.88528095       0.86438865       0.25655602 </v>
    <v>       0.36239566       0.11004475       0.24922114 </v>
    <v>       0.36371931       0.11639762       0.74572413 </v>
    <v>       0.36379628       0.60805450       0.24434452 </v>
    <v>       0.36722441       0.61492977       0.74214237 </v>
    <v>       0.86300569       0.89544570       0.49845300 </v>
    <v>       0.86068035       0.11166183       0.75450910 </v>
    <v>       0.86450998       0.61317460       0.75303653 </v>
    <v>       0.13679905       0.38845377       0.75282367 </v>
    <v>       0.88690423       0.36369947       0.75285206 </v>
    <v>       0.13236992       0.88508039       0.74403805 </v>
    <v>       0.65765185       0.38244442       0.26553696 </v>
    <v>       0.63551420       0.38883794       0.74112302 </v>
    <v>       0.63908589       0.88437312       0.24904098 </v>
    <v>       0.63546713       0.88315394       0.74433001 </v>
    <v>       0.86416419       0.59728142       0.26320934 </v>
    <v>       0.36385453       0.38558866       0.50749125 </v>
    <v>       0.09564483       0.36383371       0.48727338 </v>
    <v>       0.36053350       0.88946447       0.50354164 </v>
    <v>       0.85873631       0.39064097       0.99558958 </v>
    <v>       0.51106490       0.48795090       0.12796208 </v>
    <v>       0.86197903       0.88969699       0.99827259 </v>
    <v>       0.13714561       0.88802399       0.25310358 </v>
    <v>       0.13793178       0.11140664       0.00265601 </v>
    <v>       0.11072725       0.86128808       0.50056486 </v>
    <v>       0.13752521       0.60876790       0.00243586 </v>
    <v>       0.88035791       0.16407961       0.48405045 </v>
    <v>       0.64124332       0.11067146       0.00183269 </v>
    <v>       0.62830340       0.12432995       0.48627025 </v>
    <v>       0.63883559       0.60813562       0.00222709 </v>
    <v>       0.00222466       0.99834864       0.37564160 </v>
    <v>       0.10900512       0.36001853       0.99664884 </v>
    <v>       0.61346476       0.63141660       0.73843413 </v>
    <v>       0.11026320       0.86329246       0.00211124 </v>
    <v>       0.11569288       0.63984141       0.26237977 </v>
    <v>       0.64531275       0.40101804       0.50436749 </v>
    <v>       0.61267771       0.86093369       0.00516606 </v>
    <v>       0.60999722       0.85985539       0.50090805 </v>
    <v>       0.38839801       0.13890554       0.00295308 </v>
    <v>       0.38184656       0.13677573       0.50103414 </v>
    <v>       0.38969497       0.63551717       0.00751339 </v>
    <v>       0.42019843       0.63568107       0.51821427 </v>
    <v>       0.89046057       0.14069094       0.99466308 </v>
    <v>       0.09804535       0.38502092       0.27256228 </v>
    <v>       0.89057724       0.63964015       0.99831686 </v>
    <v>       0.88039766       0.59663551       0.47993414 </v>
    <v>       0.98715785       0.00261144       0.12770395 </v>
    <v>       0.99285615       0.01170646       0.62144999 </v>
    <v>       0.99375743       0.49155066       0.12377300 </v>
    <v>       0.99587795       0.49573594       0.62672128 </v>
    <v>       0.50155496       0.00207537       0.12598681 </v>
    <v>       0.50536932       0.00475546       0.62137861 </v>
    <v>       0.14865640       0.61126982       0.49159015 </v>
    <v>       0.11396665       0.13230773       0.24614917 </v>
    <v>       0.36128336       0.38902525       0.00160974 </v>
    <v>       0.00253790       0.99463473       0.87403300 </v>
    <v>       0.36309183       0.88883444       0.00029581 </v>
    <v>       0.00248046       0.50293365       0.87530031 </v>
    <v>       0.49360194       0.99394884       0.37436342 </v>
    <v>       0.60846221       0.35687337       0.00030205 </v>
    <v>       0.50028889       0.50935072       0.37409108 </v>
    <v>       0.49941595       0.50144291       0.87795974 </v>
    <v>       0.25371810       0.25017746       0.37560819 </v>
    <v>       0.25523019       0.25061559       0.87644224 </v>
    <v>       0.13423372       0.11316585       0.49572880 </v>
    <v>       0.25045684       0.74599203       0.87345978 </v>
    <v>       0.26655278       0.74917801       0.37804452 </v>
    <v>       0.74288169       0.25419738       0.87429235 </v>
    <v>       0.73904961       0.74434709       0.37942341 </v>
    <v>       0.74216997       0.74840507       0.87155941 </v>
    <v>       0.24437967       0.26144129       0.12616668 </v>
    <v>       0.23546368       0.25228991       0.62057442 </v>
    <v>       0.24295047       0.75041667       0.12844032 </v>
    <v>       0.24703753       0.74778530       0.62280199 </v>
    <v>       0.76225185       0.25593552       0.12329530 </v>
    <v>       0.76166478       0.24968703       0.62696462 </v>
    <v>       0.76115850       0.74380535       0.12973800 </v>
    <v>       0.75459120       0.73167353       0.61627531 </v>
   </varray>
  </structure>
  <varray name="forces" >
   <v>       0.01068235      -0.02040308       0.00762435 </v>
   <v>       0.00987082       0.00766465      -0.01748282 </v>
   <v>      -0.01506820      -0.00386286       0.01317030 </v>
   <v>      -0.00437341      -0.00537054       0.01569351 </v>
   <v>      -0.01192068      -0.00328268       0.00958991 </v>
   <v>       0.01677918       0.01807355      -0.00262267 </v>
   <v>      -0.00685530       0.00948501      -0.01391213 </v>
   <v>      -0.00644895       0.01469637      -0.04152833 </v>
   <v>       0.01616335      -0.02350436      -0.01498084 </v>
   <v>       0.00442492      -0.00632091       0.00475616 </v>
   <v>      -0.00742029      -0.00400679      -0.00806899 </v>
   <v>      -0.00277487       0.00861909       0.01124703 </v>
   <v>       0.01217198       0.01764495      -0.01344338 </v>
   <v>      -0.00324208      -0.00933716      -0.00257960 </v>
   <v>      -0.00654167       0.00338361       0.00036510 </v>
   <v>      -0.00159365       0.01645553      -0.00153441 </v>
   <v>      -0.02154203       0.00004040       0.01650192 </v>
   <v>       0.01915223      -0.00657645       0.00325130 </v>
   <v>      -0.00421399      -0.01824533       0.01528869 </v>
   <v>       0.00172596       0.01889936      -0.00516042 </v>
   <v>       0.01259398      -0.00166931       0.01887521 </v>
   <v>       0.00661930      -0.00474154       0.01829974 </v>
   <v>      -0.00322511       0.00878288       0.01504945 </v>
   <v>       0.00026742       0.00585607       0.01883094 </v>
   <v>      -0.00254139       0.00122959       0.01559699 </v>
   <v>      -0.00390334      -0.00919823      -0.00003633 </v>
   <v>      -0.01441983      -0.00510950      -0.03470438 </v>
   <v>      -0.00674697      -0.00264091       0.00434421 </v>
   <v>       0.00265410       0.00441678      -0.01876932 </v>
   <v>       0.00229568      -0.01588181       0.00470221 </v>
   <v>       0.01106224       0.00105151      -0.00635134 </v>
   <v>       0.01454101       0.02538221      -0.00001488 </v>
   <v>       0.07585521      -0.04982625      -0.00807422 </v>
   <v>      -0.01571325       0.05062322      -0.00252520 </v>
   <v>       0.05612611       0.01140282      -0.01218379 </v>
   <v>      -0.04039123      -0.03557065       0.00267179 </v>
   <v>      -0.00791054       0.04542251       0.00845118 </v>
   <v>       0.03035954      -0.00679328       0.02929881 </v>
   <v>       0.00602955      -0.02705127      -0.00095722 </v>
   <v>       0.01906856       0.02326338       0.02852624 </v>
   <v>      -0.04538507       0.00933522      -0.00533487 </v>
   <v>      -0.01360682      -0.06951926       0.02596488 </v>
   <v>      -0.01322467       0.03583142       0.02753469 </v>
   <v>      -0.02957620       0.00907659      -0.01485510 </v>
   <v>       0.02543175      -0.02706008      -0.02427173 </v>
   <v>      -0.00012618      -0.03006094      -0.03667623 </v>
   <v>       0.00918096       0.00345648       0.02982430 </v>
   <v>       0.00751991       0.01534410       0.06983616 </v>
   <v>      -0.00932344      -0.00029443       0.05423190 </v>
   <v>      -0.00048707      -0.06263294      -0.01467739 </v>
   <v>       0.00162977      -0.00761890      -0.00487574 </v>
   <v>      -0.02928082      -0.00793733      -0.00421717 </v>
   <v>       0.01064741      -0.00320257       0.00405183 </v>
   <v>      -0.00663667       0.03281079      -0.01739068 </v>
   <v>       0.00296413       0.04915708      -0.01631401 </v>
   <v>      -0.01680499      -0.00234443       0.00408459 </v>
   <v>       0.00890114      -0.00836522       0.00929518 </v>
   <v>      -0.02394418       0.00696090      -0.00384768 </v>
   <v>       0.00164032       0.01115563       0.01055487 </v>
   <v>       0.00269501       0.02049888       0.01381573 </v>
   <v>       0.00456363       0.00427559       0.01656278 </v>
   <v>      -0.00473362       0.02010021       0.00150563 </v>
   <v>      -0.01454569      -0.01620313      -0.01390786 </v>
   <v>      -0.00911039       0.00252026       0.00452780 </v>
   <v>       0.03591226       0.01979637      -0.01573317 </v>
   <v>       0.00840320       0.00702857      -0.01515008 </v>
   <v>       0.00298260      -0.02632603       0.00243564 </v>
   <v>      -0.02330064      -0.03197763       0.01044092 </v>
   <v>       0.01046525      -0.00196639       0.01362118 </v>
   <v>       0.00443781      -0.01583369      -0.01038081 </v>
   <v>      -0.01781332       0.01414749      -0.00182239 </v>
   <v>      -0.01486099       0.01694082       0.00655967 </v>
   <v>      -0.01286177       0.01640114       0.01537144 </v>
   <v>      -0.01311769       0.01654201      -0.00619967 </v>
   <v>       0.01920122       0.01691646      -0.00977218 </v>
   <v>      -0.00462045      -0.01110071      -0.01428719 </v>
   <v>      -0.02649709       0.00654889       0.00952034 </v>
   <v>       0.02551255      -0.01149257      -0.00112880 </v>
[...]
       <r>   -16.6002     0.0000    32.0000 </r>
       <r>   -16.4475     0.0000    32.0000 </r>
       <r>   -16.2947     0.0000    32.0000 </r>
       <r>   -16.1420     0.0000    32.0000 </r>
       <r>   -15.9893     0.0000    32.0000 </r>
       <r>   -15.8365     0.0000    32.0000 </r>
       <r>   -15.6838     0.0000    32.0000 </r>
       <r>   -15.5310     0.0000    32.0000 </r>
       <r>   -15.3783     0.0000    32.0000 </r>
       <r>   -15.2256     0.0016    32.0002 </r>
       <r>   -15.0728     9.1953    33.4047 </r>
       <r>   -14.9201    40.7030    39.6215 </r>
       <r>   -14.7674    53.2259    47.7511 </r>
       <r>   -14.6146    39.6197    53.8025 </r>
       <r>   -14.4619    30.3160    58.4329 </r>
       <r>   -14.3091    40.9813    64.6922 </r>
       <r>   -14.1564    69.9456    75.3755 </r>
       <r>   -14.0037   107.1899    91.7474 </r>
       <r>   -13.8509   102.5219   107.4062 </r>
       <r>   -13.6982    70.4968   118.1737 </r>
       <r>   -13.5455    20.4678   121.2999 </r>
       <r>   -13.3927     4.5833   121.9999 </r>
       <r>   -13.2400     0.0004   122.0000 </r>
       <r>   -13.0873     0.0000   122.0000 </r>
       <r>   -12.9345     0.0000   122.0000 </r>
       <r>   -12.7818     0.5059   122.0773 </r>
       <r>   -12.6290    51.4779   129.9398 </r>
       <r>   -12.4763   143.7204   151.8913 </r>
       <r>   -12.3236   150.5770   174.8899 </r>
       <r>   -12.1708   108.7007   191.4925 </r>
       <r>   -12.0181   104.0540   207.3854 </r>
       <r>   -11.8654    47.7400   214.6771 </r>
       <r>   -11.7126    13.2822   216.7058 </r>
       <r>   -11.5599     7.7559   217.8904 </r>
       <r>   -11.4071     0.7177   218.0000 </r>
       <r>   -11.2544     0.0000   218.0000 </r>
       <r>   -11.1017     0.0000   218.0000 </r>
       <r>   -10.9489     0.0000   218.0000 </r>
       <r>   -10.7962     0.0000   218.0000 </r>
       <r>   -10.6435     0.0000   218.0000 </r>
       <r>   -10.4907     0.0000   218.0000 </r>
       <r>   -10.3380     0.0000   218.0000 </r>
       <r>   -10.1853     0.0000   218.0000 </r>
       <r>   -10.0325     0.0000   218.0000 </r>
       <r>    -9.8798     0.0000   218.0000 </r>
       <r>    -9.7270     0.0000   218.0000 </r>
       <r>    -9.5743     0.0000   218.0000 </r>
       <r>    -9.4216     0.0000   218.0000 </r>
       <r>    -9.2688     0.0000   218.0000 </r>
       <r>    -9.1161     0.0000   218.0000 </r>
       <r>    -8.9634     0.0000   218.0000 </r>
       <r>    -8.8106     0.0000   218.0000 </r>
       <r>    -8.6579     0.0000   218.0000 </r>
       <r>    -8.5051     0.0000   218.0000 </r>
       <r>    -8.3524     0.0000   218.0000 </r>
       <r>    -8.1997     0.0000   218.0000 </r>
       <r>    -8.0469     0.0000   218.0000 </r>
       <r>    -7.8942     0.0000   218.0000 </r>
       <r>    -7.7415     0.0000   218.0000 </r>
       <r>    -7.5887     0.0000   218.0000 </r>
       <r>    -7.4360     0.0000   218.0000 </r>
       <r>    -7.2832     0.0000   218.0000 </r>
       <r>    -7.1305     0.0000   218.0000 </r>
       <r>    -6.9778     0.0000   218.0000 </r>
       <r>    -6.8250     0.0000   218.0000 </r>
       <r>    -6.6723     0.0000   218.0000 </r>
       <r>    -6.5196     0.0000   218.0000 </r>
       <r>    -6.3668     0.0000   218.0000 </r>
       <r>    -6.2141     0.0000   218.0000 </r>
       <r>    -6.0614     0.0000   218.0000 </r>
       <r>    -5.9086     0.0000   218.0000 </r>
       <r>    -5.7559     0.0000   218.0000 </r>
       <r>    -5.6031     0.0000   218.0000 </r>
       <r>    -5.4504     0.0000   218.0000 </r>
       <r>    -5.2977     0.0000   218.0000 </r>
       <r>    -5.1449     0.0000   218.0000 </r>
       <r>    -4.9922     0.0000   218.0000 </r>
       <r>    -4.8395     0.0000   218.0000 </r>
       <r>    -4.6867     0.0000   218.0000 </r>
       <r>    -4.5340     0.0000   218.0000 </r>
       <r>    -4.3812     0.0000   218.0000 </r>
       <r>    -4.2285     0.0000   218.0000 </r>
       <r>    -4.0758     0.0000   218.0000 </r>
       <r>    -3.9230     0.0000   218.0000 </r>
       <r>    -3.7703     0.0000   218.0000 </r>
       <r>    -3.6176     0.0000   218.0000 </r>
       <r>    -3.4648     0.0000   218.0000 </r>
       <r>    -3.3121     0.0000   218.0000 </r>
       <r>    -3.1594     0.0000   218.0000 </r>
       <r>    -3.0066     0.0000   218.0000 </r>
       <r>    -2.8539     0.0000   218.0000 </r>
       <r>    -2.7011     0.0000   218.0000 </r>
       <r>    -2.5484     0.0000   218.0000 </r>
       <r>    -2.3957     1.7312   218.2644 </r>
       <r>    -2.2429    11.5953   220.0355 </r>
       <r>    -2.0902    30.6257   224.7131 </r>
       <r>    -1.9375    28.5692   229.0767 </r>
       <r>    -1.7847    31.6632   233.9128 </r>
       <r>    -1.6320    41.2919   240.2196 </r>
       <r>    -1.4792    51.2583   248.0487 </r>
       <r>    -1.3265    57.4504   256.8235 </r>
       <r>    -1.1738    64.9604   266.7453 </r>
       <r>    -1.0210    76.0493   278.3609 </r>
       <r>    -0.8683    71.5995   289.2968 </r>
       <r>    -0.7156    82.8327   301.9484 </r>
       <r>    -0.5628    99.4005   317.1305 </r>
       <r>    -0.4101   105.0656   333.1779 </r>
       <r>    -0.2573    76.4308   344.8517 </r>
       <r>    -0.1046    56.9361   353.5480 </r>
       <r>     0.0481    46.7737   360.6920 </r>
       <r>     0.2009    54.4576   369.0097 </r>
       <r>     0.3536    53.5722   377.1922 </r>
       <r>     0.5063    52.9040   385.2726 </r>
       <r>     0.6591    56.1402   393.8472 </r>
       <r>     0.8118    49.3523   401.3852 </r>
       <r>     0.9645    50.7639   409.1387 </r>
       <r>     1.1173    58.8823   418.1322 </r>
       <r>     1.2700    75.9210   429.7282 </r>
       <r>     1.4228    82.5262   442.3330 </r>
       <r>     1.5755    86.5211   455.5479 </r>
       <r>     1.7282    71.8634   466.5241 </r>
       <r>     1.8810    58.0101   475.3844 </r>
       <r>     2.0337    43.3726   482.0090 </r>
       <r>     2.1864    24.5801   485.7633 </r>
       <r>     2.3392    12.5051   487.6733 </r>
       <r>     2.4919     2.1390   488.0000 </r>
       <r>     2.6447     0.0000   488.0000 </r>
       <r>     2.7974     0.0000   488.0000 </r>
       <r>     2.9501     0.0000   488.0000 </r>
       <r>     3.1029     0.0000   488.0000 </r>
       <r>     3.2556     0.0000   488.0000 </r>
       <r>     3.4083     0.0000   488.0000 </r>
       <r>     3.5611     0.0000   488.0000 </r>
       <r>     3.7138     0.0000   488.0000 </r>
       <r>     3.8665     0.0000   488.0000 </r>
       <r>     4.0193     0.0000   488.0000 </r>
       <r>     4.1720     0.1717   488.0262 </r>
       <r>     4.3248     9.5133   489.4793 </r>
       <r>     4.4775    10.9810   491.1565 </r>
       <r>     4.6302    41.0110   497.4203 </r>
       <r>     4.7830    47.8764   504.7328 </r>
       <r>     4.9357    53.2326   512.8634 </r>
       <r>     5.0884    49.7035   520.4550 </r>
       <r>     5.2412    54.5132   528.7812 </r>
       <r>     5.3939    67.5834   539.1037 </r>
       <r>     5.5467    75.0898   550.5727 </r>
       <r>     5.6994    70.5897   561.3543 </r>
       <r>     5.8521    62.4189   570.8880 </r>
       <r>     6.0049    76.8074   582.6193 </r>
       <r>     6.1576    81.2686   595.0320 </r>
       <r>     6.3103    56.4857   603.6595 </r>
       <r>     6.4631    41.0456   609.9287 </r>
       <r>     6.6158     8.5031   611.2274 </r>
       <r>     6.7686    12.9224   613.2011 </r>
       <r>     6.9213    22.8372   616.6892 </r>
       <r>     7.0740    21.4868   619.9710 </r>
       <r>     7.2268    19.2264   622.9076 </r>
       <r>     7.3795    17.1856   625.5325 </r>
       <r>     7.5322    15.7343   627.9357 </r>
       <r>     7.6850    17.8950   630.6689 </r>
       <r>     7.8377    13.7603   632.7706 </r>
       <r>     7.9904    25.8606   636.7205 </r>
       <r>     8.1432    25.7658   640.6559 </r>
       <r>     8.2959    26.3884   644.6864 </r>
       <r>     8.4487    23.7686   648.3167 </r>
       <r>     8.6014    23.0198   651.8327 </r>
       <r>     8.7541    28.3089   656.1565 </r>
       <r>     8.9069    36.5530   661.7395 </r>
       <r>     9.0596    33.0576   666.7886 </r>
       <r>     9.2123    41.6708   673.1533 </r>
       <r>     9.3651    39.4004   679.1712 </r>
       <r>     9.5178    39.3915   685.1877 </r>
       <r>     9.6706    51.1438   692.9993 </r>
       <r>     9.8233    57.6801   701.8092 </r>
       <r>     9.9760    60.5636   711.0595 </r>
       <r>    10.1288    64.7217   720.9449 </r>
       <r>    10.2815    59.0161   729.9588 </r>
       <r>    10.4342    54.4286   738.2721 </r>
       <r>    10.5870    60.5648   747.5226 </r>
       <r>    10.7397    56.6732   756.1786 </r>
       <r>    10.8924    56.6866   764.8368 </r>
       <r>    11.0452    20.6983   767.9982 </r>
       <r>    11.1979     0.0119   768.0000 </r>
       <r>    11.3507     0.0000   768.0000 </r>
       <r>    11.5034     0.0000   768.0000 </r>
       <r>    11.6561     0.0000   768.0000 </r>
       <r>    11.8089     0.0000   768.0000 </r>
       <r>    11.9616     0.0000   768.0000 </r>
       <r>    12.1143     0.0000   768.0000 </r>
       <r>    12.2671     0.0000   768.0000 </r>
       <r>    12.4198     0.0000   768.0000 </r>
       <r>    12.5726     0.0000   768.0000 </r>
       <r>    12.7253     0.0000   768.0000 </r>
       <r>    12.8780     0.0000   768.0000 </r>
       <r>    13.0308     0.0000   768.0000 </r>
      </set>
     </set>
    </array>
   </total>
  </dos>
 </calculation>
 <structure name="finalpos" >
  <crystal>
   <varray name="basis" >
    <v>      11.20213290       0.08588425      -0.00735381 </v>
    <v>       0.08593985      11.19781220       0.01235282 </v>
    <v>      -0.01027414       0.01762044      16.04392727 </v>
   </varray>
   <i name="volume">   2012.41857183 </i>
   <varray name="rec_basis" >
    <v>       0.08927401      -0.00068522       0.00005792 </v>
    <v>      -0.00068477       0.08930852      -0.00009852 </v>
    <v>       0.00004145      -0.00006908       0.06232898 </v>
   </varray>
  </crystal>
  <varray name="positions" >
   <v>       0.00590733       0.24542961       0.11766837 </v>
   <v>       0.00311507       0.24848232       0.62971016 </v>
   <v>      -0.00092949       0.75557789       0.11739755 </v>
   <v>       0.00343821       0.75601418       0.63372128 </v>
   <v>       0.48892152       0.24707875       0.12052937 </v>
   <v>       0.48776068       0.23901734       0.63528008 </v>
   <v>       0.50086563       0.74860366       0.12197905 </v>
   <v>       0.50120847       0.76686108       0.63278104 </v>
   <v>       0.01965283       0.23195023       0.37242473 </v>
   <v>       0.00146718       0.25101911       0.87282393 </v>
   <v>       0.00222013       0.75689039       0.37608420 </v>
   <v>       0.00107837       0.75011058       0.87566604 </v>
   <v>       0.48281969       0.23592573       0.36923484 </v>
   <v>       0.49461497       0.24623607       0.87421841 </v>
   <v>       0.49951578       0.75674247       0.37202219 </v>
   <v>       0.49860622       0.75257008       0.87822883 </v>
   <v>       0.24964010       0.99760971       0.12297541 </v>
   <v>       0.25187074       0.00478777       0.63086679 </v>
   <v>       0.25620021       0.50234867       0.11746157 </v>
   <v>       0.25101344       0.49879953       0.63553593 </v>
   <v>       0.74529159       0.98748795       0.11742009 </v>
   <v>       0.74925514       0.99941829       0.63409720 </v>
   <v>       0.75010268       0.50337211       0.12063306 </v>
   <v>       0.76123964       0.50283103       0.63626653 </v>
   <v>       0.25224123       0.99762821       0.37410839 </v>
   <v>       0.25268323       0.00123475       0.87290238 </v>
   <v>       0.25256838       0.49354973       0.36680670 </v>
   <v>       0.24966839       0.50003152       0.87565653 </v>
   <v>       0.74848510       0.99771112       0.37249808 </v>
   <v>       0.74552117       0.99745455       0.87413997 </v>
   <v>       0.73654317       0.51873844       0.37468748 </v>
   <v>       0.75121321       0.50303672       0.87601396 </v>
   <v>       0.75057806       0.74767105       0.24985696 </v>
   <v>       0.49595002       0.99697266       0.24762710 </v>
   <v>       0.00290895       0.00024083       0.49983338 </v>
   <v>       0.25195878       0.74885929       0.24854190 </v>
   <v>       0.00245268       0.49940326       0.75338927 </v>
   <v>       0.25843680       0.74980040       0.50299698 </v>
   <v>       0.49913210       0.99641887       0.99894537 </v>
   <v>       0.74636450       0.74803224       0.75033530 </v>
   <v>       0.49859709       0.00029989       0.50082973 </v>
   <v>       0.99968708       0.00300109       0.75128021 </v>
   <v>       0.99949763       0.50227235       0.99790951 </v>
   <v>       0.25379520       0.75022155       0.75175523 </v>
   <v>       0.50171085       0.49606941       0.24821884 </v>
   <v>       0.24636636       0.25044650       0.50060054 </v>
   <v>       0.24846294       0.25072464       0.99899742 </v>
   <v>       0.50191988       0.49991816       0.00027142 </v>
   <v>       0.74923026       0.25053205       0.99752944 </v>
   <v>       0.99831503       0.99763739       0.99753048 </v>
   <v>       0.74522641       0.25181057       0.75224848 </v>
   <v>       0.00042428       0.00170224       0.24986920 </v>
   <v>       0.25003973       0.25158801       0.75102509 </v>
   <v>       0.49151236       0.48901058       0.48876989 </v>
   <v>       0.02143532       0.51187356       0.51143621 </v>
   <v>       0.24939603       0.74945493       0.00024565 </v>
   <v>       0.49902802       0.00254800       0.75159898 </v>
   <v>       0.01069489       0.51584564       0.23804401 </v>
   <v>       0.73468011       0.24466508       0.51331332 </v>
   <v>       0.24772446       0.24733021       0.24796297 </v>
   <v>       0.73544287       0.23564385       0.23643383 </v>
   <v>       0.50017432       0.50010558       0.76028655 </v>
   <v>       0.75766400       0.76687361       0.49923361 </v>
   <v>       0.74995285       0.74805203       0.99796709 </v>
   <v>       0.11178015       0.13355253       0.74996900 </v>
   <v>       0.50126675      -0.00120369       0.87706330 </v>
   <v>       0.11588092       0.63421002       0.74878227 </v>
   <v>       0.61174991       0.13051652       0.25679089 </v>
   <v>       0.61686991       0.13645543       0.75122544 </v>
   <v>       0.61719974       0.63088520       0.24817965 </v>
   <v>       0.88153564       0.86537466       0.74468194 </v>
   <v>       0.38711464       0.36538231       0.25328873 </v>
   <v>       0.38587048       0.37313087       0.73836720 </v>
   <v>       0.38690222       0.86022485       0.24559151 </v>
   <v>       0.38056773       0.86859037       0.74859430 </v>
   <v>       0.86771361       0.13847401       0.26808944 </v>
   <v>       0.88279217       0.86461531       0.25843094 </v>
   <v>       0.36344302       0.11181285       0.24818779 </v>
   <v>       0.36551632       0.11882200       0.74671100 </v>
   <v>       0.36679930       0.61011383       0.24596992 </v>
   <v>       0.36964481       0.61731446       0.74255421 </v>
   <v>       0.86336494       0.89561927       0.49690295 </v>
   <v>       0.86294900       0.11468629       0.75641297 </v>
   <v>       0.86715352       0.61659238       0.75238233 </v>
   <v>       0.13383754       0.38618942       0.75272461 </v>
   <v>       0.88362157       0.36687322       0.75085455 </v>
   <v>       0.13073439       0.88352223       0.74317552 </v>
   <v>       0.65720220       0.37965099       0.26762404 </v>
   <v>       0.63179300       0.38650061       0.73697782 </v>
   <v>       0.63577907       0.88117119       0.25043470 </v>
   <v>       0.63421667       0.88249399       0.74373817 </v>
   <v>       0.86605167       0.59713622       0.26326087 </v>
   <v>       0.36702847       0.38445388       0.50762427 </v>
   <v>       0.09677778       0.36418228       0.48679060 </v>
   <v>       0.36263807       0.88863817       0.50560636 </v>
   <v>       0.85893990       0.39040727       0.99632403 </v>
   <v>       0.50969893       0.48661698       0.12816921 </v>
   <v>       0.86178974       0.88917686       0.99718040 </v>
   <v>       0.13404076       0.88415602       0.25275801 </v>
   <v>       0.13657991       0.11160872       0.00416387 </v>
   <v>       0.11104626       0.86065566       0.50136733 </v>
   <v>       0.13710204       0.60875241       0.00001559 </v>
   <v>       0.87668618       0.16779761       0.48105355 </v>
   <v>       0.64069357       0.11125477       0.00148381 </v>
   <v>       0.62466432       0.12923174       0.48295640 </v>
   <v>       0.63802277       0.60825518       0.00321679 </v>
   <v>       0.00388072       0.99882431       0.37592967 </v>
   <v>       0.10858783       0.36008540       0.99710033 </v>
   <v>       0.61548598       0.63000441       0.73745822 </v>
   <v>       0.11015503       0.86304006       0.00331437 </v>
   <v>       0.11880449       0.63501394       0.26607888 </v>
   <v>       0.64800869       0.40601760       0.50627924 </v>
   <v>       0.61260036       0.86090206       0.00447880 </v>
   <v>       0.61207715       0.86445553       0.50071284 </v>
   <v>       0.38727425       0.13804937       0.00324558 </v>
   <v>       0.37940751       0.13545371       0.50089673 </v>
   <v>       0.38889083       0.63449891       0.00684853 </v>
   <v>       0.42080667       0.63695445       0.51775816 </v>
   <v>       0.88935767       0.14018810       0.99357530 </v>
   <v>       0.09850759       0.38108536       0.27029720 </v>
   <v>       0.88943491       0.63902526       0.99758921 </v>
   <v>       0.88671199       0.59965121       0.47690579 </v>
   <v>       0.98483010       0.00099191       0.12788197 </v>
   <v>       0.99012653       0.01159520       0.62138628 </v>
   <v>       0.99556452       0.49452660       0.12363680 </v>
   <v>       0.99641746       0.49756688       0.62604122 </v>
   <v>       0.50291098       0.00112546       0.12600484 </v>
   <v>       0.50701035       0.00860036       0.62130572 </v>
   <v>       0.15372132       0.60937492       0.49186484 </v>
   <v>       0.11552363       0.12917429       0.24586630 </v>
   <v>       0.36124534       0.38824930       0.00073158 </v>
   <v>       0.00489443       0.99424435       0.87419021 </v>
   <v>       0.36309566       0.88776511       0.00177827 </v>
   <v>       0.00083036       0.50165074       0.87483278 </v>
   <v>       0.49061917       0.99390118       0.37405856 </v>
   <v>       0.60835491       0.35702895       0.00109440 </v>
   <v>       0.50217621       0.51006888       0.37445150 </v>
   <v>       0.50179708       0.50088517       0.87781144 </v>
   <v>       0.25352168       0.24966396       0.37570532 </v>
   <v>       0.25281156       0.24976178       0.87676266 </v>
   <v>       0.13249922       0.11431515       0.49736348 </v>
   <v>       0.25135498       0.74838689       0.87333545 </v>
   <v>       0.26716610       0.75137587       0.37850191 </v>
   <v>       0.74184943       0.25821960       0.87409782 </v>
   <v>       0.73566080       0.74171880       0.37990509 </v>
   <v>       0.74048699       0.74771622       0.87117567 </v>
   <v>       0.24428881       0.26232291       0.12614750 </v>
   <v>       0.23679914       0.25374019       0.62085460 </v>
   <v>       0.24124410       0.74581263       0.12909441 </v>
   <v>       0.24671546       0.74639364       0.62310518 </v>
   <v>       0.76220831       0.25684895       0.12339875 </v>
   <v>       0.75997667       0.24408266       0.62673408 </v>
   <v>       0.76102678       0.74552214       0.12983712 </v>
   <v>       0.75466080       0.73164966       0.61517501 </v>
  </varray>
 </structure>
</modeling>
