       N       E                     dE             d eps       ncg     rms          rms(c)
DAV:   1    -0.995208054037E+03   -0.99521E+03   -0.35322E-01 13312   0.139E+00    0.565E-02
RMM:   2    -0.995208065727E+03   -0.11690E-04   -0.11595E-04  7589   0.210E-02    0.652E-02
RMM:   3    -0.995208068131E+03   -0.24035E-05   -0.29400E-05  7237   0.115E-02    0.276E-02
RMM:   4    -0.995208084109E+03   -0.15978E-04   -0.20268E-05  7197   0.696E-03    0.267E-02
RMM:   5    -0.995208088567E+03   -0.44582E-05   -0.92877E-06  7104   0.571E-03    0.152E-02
RMM:   6    -0.995208089590E+03   -0.10230E-05   -0.64395E-06  6282   0.355E-03    0.626E-03
RMM:   7    -0.995208089958E+03   -0.36802E-06   -0.30328E-06  5076   0.331E-03    0.445E-03
RMM:   8    -0.995208090173E+03   -0.21454E-06   -0.17483E-06  3887   0.227E-03
   1 F= -.99520809E+03 E0= -.99520809E+03  d E =-.995208E+03  mag=   120.0000
       N       E                     dE             d eps       ncg     rms          rms(c)
DAV:   1    -0.995203724993E+03    0.43650E-02   -0.52607E+00 12736   0.275E+00    0.117E+00
RMM:   2    -0.995224161911E+03   -0.20437E-01   -0.15257E-01 12600   0.556E-01    0.789E-01
RMM:   3    -0.995225937845E+03   -0.17759E-02   -0.88766E-03 13540   0.152E-01    0.427E-01
RMM:   4    -0.995225245749E+03    0.69210E-03   -0.17058E-03 12993   0.503E-02    0.253E-01
RMM:   5    -0.995224998025E+03    0.24772E-03   -0.12001E-03 11748   0.370E-02    0.705E-02
RMM:   6    -0.995224993316E+03    0.47090E-05   -0.79457E-05  7816   0.159E-02    0.542E-02
RMM:   7    -0.995224995024E+03   -0.17081E-05   -0.39173E-05  7421   0.793E-03    0.376E-02
RMM:   8    -0.995224994983E+03    0.41604E-07   -0.21881E-05  7304   0.698E-03
   2 F= -.99522499E+03 E0= -.99522499E+03  d E =-.169048E-01  mag=   120.0000
       N       E                     dE             d eps       ncg     rms          rms(c)
DAV:   1    -0.995224052734E+03    0.94229E-03   -0.47052E-01 13120   0.823E-01    0.346E-01
RMM:   2    -0.995225898169E+03   -0.18454E-02   -0.13767E-02 12596   0.166E-01    0.232E-01
RMM:   3    -0.995226050041E+03   -0.15187E-03   -0.75585E-04 10834   0.457E-02    0.130E-01
RMM:   4    -0.995225990938E+03    0.59103E-04   -0.13098E-04  7642   0.166E-02    0.782E-02
RMM:   5    -0.995225969927E+03    0.21011E-04   -0.11387E-04  7435   0.129E-02    0.286E-02
RMM:   6    -0.995225971931E+03   -0.20043E-05   -0.22846E-05  7255   0.795E-03    0.161E-02
RMM:   7    -0.995225972585E+03   -0.65338E-06   -0.11458E-05  6882   0.444E-03    0.148E-02
RMM:   8    -0.995225972868E+03   -0.28344E-06   -0.56775E-06  6122   0.421E-03
   3 F= -.99522597E+03 E0= -.99522597E+03  d E =-.178827E-01  mag=   120.0000
       N       E                     dE             d eps       ncg     rms          rms(c)
DAV:   1    -0.995227318604E+03   -0.13460E-02   -0.32083E+00 12640   0.214E+00    0.724E-01
RMM:   2    -0.995237741574E+03   -0.10423E-01   -0.87137E-02 12665   0.408E-01    0.442E-01
RMM:   3    -0.995238451251E+03   -0.70968E-03   -0.49558E-03 13331   0.115E-01    0.246E-01
RMM:   4    -0.995238212329E+03    0.23892E-03   -0.78381E-04 12563   0.343E-02    0.144E-01
RMM:   5    -0.995238134394E+03    0.77935E-04   -0.49043E-04 10377   0.238E-02    0.416E-02
RMM:   6    -0.995238137294E+03   -0.29004E-05   -0.52851E-05  7400   0.120E-02    0.311E-02
RMM:   7    -0.995238139530E+03   -0.22359E-05   -0.27708E-05  7263   0.701E-03    0.212E-02
RMM:   8    -0.995238140356E+03   -0.82579E-06   -0.16273E-05  7035   0.638E-03
   4 F= -.99523814E+03 E0= -.99523814E+03  d E =-.121675E-01  mag=   120.0000
       N       E                     dE             d eps       ncg     rms          rms(c)
DAV:   1    -0.995202544676E+03    0.35595E-01   -0.13614E+01 12488   0.442E+00    0.149E+00
RMM:   2    -0.995246845387E+03   -0.44301E-01   -0.37024E-01 12647   0.842E-01    0.911E-01
RMM:   3    -0.995249914419E+03   -0.30690E-02   -0.21262E-02 13833   0.238E-01    0.509E-01
RMM:   4    -0.995248917677E+03    0.99674E-03   -0.33795E-03 15174   0.681E-02    0.299E-01
RMM:   5    -0.995248589954E+03    0.32772E-03   -0.21338E-03 13085   0.449E-02    0.842E-02
RMM:   6    -0.995248591543E+03   -0.15892E-05   -0.18424E-04  8540   0.203E-02    0.584E-02
RMM:   7    -0.995248596745E+03   -0.52023E-05   -0.76245E-05  7516   0.114E-02    0.390E-02
RMM:   8    -0.995248599420E+03   -0.26744E-05   -0.61446E-05  7499   0.991E-03
   5 F= -.99524860E+03 E0= -.99524860E+03  d E =-.226266E-01  mag=   120.0000
       N       E                     dE             d eps       ncg     rms          rms(c)
DAV:   1    -0.995241347652E+03    0.72491E-02   -0.54252E+00 12584   0.276E+00    0.942E-01
RMM:   2    -0.995259396779E+03   -0.18049E-01   -0.14544E-01 12617   0.523E-01    0.588E-01
RMM:   3    -0.995260720879E+03   -0.13241E-02   -0.85206E-03 13498   0.150E-01    0.307E-01
RMM:   4    -0.995260325681E+03    0.39520E-03   -0.13226E-03 13738   0.432E-02    0.184E-01
RMM:   5    -0.995260188814E+03    0.13687E-03   -0.83533E-04 11622   0.293E-02    0.545E-02
RMM:   6    -0.995260194393E+03   -0.55794E-05   -0.84668E-05  7474   0.143E-02    0.389E-02
RMM:   7    -0.995260198184E+03   -0.37912E-05   -0.43253E-05  7344   0.833E-03    0.257E-02
RMM:   8    -0.995260200093E+03   -0.19083E-05   -0.26282E-05  7239   0.798E-03
   6 F= -.99526020E+03 E0= -.99526020E+03  d E =-.116007E-01  mag=   120.0000
       N       E                     dE             d eps       ncg     rms          rms(c)
DAV:   1    -0.995236692127E+03    0.23506E-01   -0.83129E+00 12536   0.342E+00    0.116E+00
RMM:   2    -0.995264279987E+03   -0.27588E-01   -0.22230E-01 12598   0.648E-01    0.725E-01
RMM:   3    -0.995266334700E+03   -0.20547E-02   -0.13071E-02 13513   0.187E-01    0.380E-01
RMM:   4    -0.995265733149E+03    0.60155E-03   -0.20279E-03 14548   0.534E-02    0.228E-01
RMM:   5    -0.995265520953E+03    0.21220E-03   -0.12880E-03 12439   0.351E-02    0.674E-02
RMM:   6    -0.995265526086E+03   -0.51324E-05   -0.11809E-04  7685   0.166E-02    0.466E-02
RMM:   7    -0.995265530589E+03   -0.45029E-05   -0.56999E-05  7428   0.935E-03    0.311E-02
RMM:   8    -0.995265532530E+03   -0.19412E-05   -0.34415E-05  7308   0.837E-03
   7 F= -.99526553E+03 E0= -.99526553E+03  d E =-.169331E-01  mag=   120.0000
       N       E                     dE             d eps       ncg     rms          rms(c)
DAV:   1    -0.995247962320E+03    0.17568E-01   -0.69555E+00 12560   0.310E+00    0.114E+00
RMM:   2    -0.995273480717E+03   -0.25518E-01   -0.17870E-01 12693   0.578E-01    0.690E-01
RMM:   3    -0.995275815734E+03   -0.23350E-02   -0.10007E-02 13516   0.162E-01    0.346E-01
RMM:   4    -0.995275366783E+03    0.44895E-03   -0.14727E-03 14014   0.459E-02    0.212E-01
RMM:   5    -0.995275181027E+03    0.18576E-03   -0.11473E-03 11870   0.327E-02    0.570E-02
RMM:   6    -0.995275180941E+03    0.86773E-07   -0.92995E-05  7488   0.159E-02    0.436E-02
RMM:   7    -0.995275183527E+03   -0.25866E-05   -0.45511E-05  7366   0.842E-03    0.281E-02
RMM:   8    -0.995275183049E+03    0.47855E-06   -0.28139E-05  7242   0.807E-03
   8 F= -.99527518E+03 E0= -.99527518E+03  d E =-.965052E-02  mag=   120.0000
       N       E                     dE             d eps       ncg     rms          rms(c)
DAV:   1    -0.995258080011E+03    0.17104E-01   -0.50963E+00 12592   0.265E+00    0.973E-01
RMM:   2    -0.995276779040E+03   -0.18699E-01   -0.13098E-01 12691   0.495E-01    0.590E-01
RMM:   3    -0.995278488327E+03   -0.17093E-02   -0.73605E-03 13420   0.138E-01    0.297E-01
RMM:   4    -0.995278158181E+03    0.33015E-03   -0.10600E-03 13321   0.392E-02    0.183E-01
RMM:   5    -0.995278019555E+03    0.13863E-03   -0.84316E-04 11352   0.289E-02    0.494E-02
RMM:   6    -0.995278020819E+03   -0.12638E-05   -0.74957E-05  7438   0.147E-02    0.389E-02
RMM:   7    -0.995278023357E+03   -0.25381E-05   -0.38692E-05  7320   0.770E-03    0.247E-02
RMM:   8    -0.995278023090E+03    0.26630E-06   -0.23226E-05  7207   0.791E-03
   9 F= -.99527802E+03 E0= -.99527802E+03  d E =-.124906E-01  mag=   120.0000
       N       E                     dE             d eps       ncg     rms          rms(c)
DAV:   1    -0.995262884769E+03    0.15139E-01   -0.58174E+00 12536   0.284E+00    0.102E+00
RMM:   2    -0.995284044962E+03   -0.21160E-01   -0.15082E-01 12810   0.525E-01    0.584E-01
RMM:   3    -0.995285796267E+03   -0.17513E-02   -0.80640E-03 13449   0.146E-01    0.291E-01
RMM:   4    -0.995285388498E+03    0.40777E-03   -0.14181E-03 13374   0.441E-02    0.165E-01
RMM:   5    -0.995285277053E+03    0.11145E-03   -0.67466E-04 11418   0.273E-02    0.567E-02
RMM:   6    -0.995285279571E+03   -0.25188E-05   -0.74242E-05  7443   0.132E-02    0.311E-02
RMM:   7    -0.995285281523E+03   -0.19516E-05   -0.38427E-05  7320   0.797E-03    0.238E-02
RMM:   8    -0.995285281723E+03   -0.19954E-06   -0.22323E-05  7163   0.715E-03
  10 F= -.99528528E+03 E0= -.99528528E+03  d E =-.725863E-02  mag=   120.0000
       N       E                     dE             d eps       ncg     rms          rms(c)
DAV:   1    -0.995272900754E+03    0.12381E-01   -0.36189E+00 12648   0.224E+00    0.801E-01
RMM:   2    -0.995286073232E+03   -0.13172E-01   -0.93926E-02 12802   0.414E-01    0.459E-01
RMM:   3    -0.995287168180E+03   -0.10949E-02   -0.50796E-03 13286   0.115E-01    0.229E-01
RMM:   4    -0.995286913805E+03    0.25437E-03   -0.87913E-04 12704   0.351E-02    0.131E-01
RMM:   5    -0.995286843994E+03    0.69811E-04   -0.41922E-04 10403   0.223E-02    0.461E-02
RMM:   6    -0.995286846726E+03   -0.27322E-05   -0.55601E-05  7414   0.116E-02    0.281E-02
RMM:   7    -0.995286848420E+03   -0.16939E-05   -0.28141E-05  7271   0.720E-03    0.208E-02
RMM:   8    -0.995286848530E+03   -0.10994E-06   -0.16672E-05  6993   0.619E-03
  11 F= -.99528685E+03 E0= -.99528685E+03  d E =-.882544E-02  mag=   120.0000
       N       E                     dE             d eps       ncg     rms          rms(c)
DAV:   1    -0.995265458684E+03    0.21390E-01   -0.68795E+00 12360   0.307E+00    0.111E+00
RMM:   2    -0.995290461710E+03   -0.25003E-01   -0.17546E-01 12637   0.574E-01    0.639E-01
RMM:   3    -0.995292794260E+03   -0.23326E-02   -0.10250E-02 13326   0.163E-01    0.311E-01
RMM:   4    -0.995292273211E+03    0.52105E-03   -0.15953E-03 13815   0.473E-02    0.181E-01
RMM:   5    -0.995292098856E+03    0.17436E-03   -0.94698E-04 11653   0.309E-02    0.573E-02
RMM:   6    -0.995292101791E+03   -0.29356E-05   -0.85215E-05  7451   0.149E-02    0.335E-02
RMM:   7    -0.995292103897E+03   -0.21054E-05   -0.41630E-05  7343   0.820E-03    0.244E-02
RMM:   8    -0.995292104455E+03   -0.55833E-06   -0.24855E-05  7173   0.772E-03
  12 F= -.99529210E+03 E0= -.99529210E+03  d E =-.525592E-02  mag=   120.0000
       N       E                     dE             d eps       ncg     rms          rms(c)
DAV:   1    -0.995290034687E+03    0.20692E-02   -0.63056E-01 12808   0.930E-01    0.335E-01
RMM:   2    -0.995292346778E+03   -0.23121E-02   -0.16272E-02 12651   0.174E-01    0.192E-01
RMM:   3    -0.995292556182E+03   -0.20940E-03   -0.95223E-04 11236   0.496E-02    0.955E-02
RMM:   4    -0.995292507514E+03    0.48668E-04   -0.12092E-04  7467   0.152E-02    0.569E-02
RMM:   5    -0.995292492480E+03    0.15034E-04   -0.85306E-05  7287   0.114E-02    0.284E-02
RMM:   6    -0.995292495295E+03   -0.28145E-05   -0.22803E-05  7118   0.767E-03    0.181E-02
RMM:   7    -0.995292496135E+03   -0.84024E-06   -0.11298E-05  6797   0.455E-03    0.115E-02
RMM:   8    -0.995292496524E+03   -0.38835E-06   -0.62402E-06  6104   0.422E-03
  13 F= -.99529250E+03 E0= -.99529250E+03  d E =-.564799E-02  mag=   120.0000
       N       E                     dE             d eps       ncg     rms          rms(c)
DAV:   1    -0.995285862309E+03    0.66338E-02   -0.21594E+00 12352   0.174E+00    0.740E-01
RMM:   2    -0.995295151489E+03   -0.92892E-02   -0.57124E-02 12606   0.336E-01    0.444E-01
RMM:   3    -0.995296203538E+03   -0.10520E-02   -0.34163E-03 12919   0.952E-02    0.221E-01
RMM:   4    -0.995296032328E+03    0.17121E-03   -0.47882E-04 10497   0.282E-02    0.136E-01
RMM:   5    -0.995295958334E+03    0.73994E-04   -0.38603E-04  9523   0.221E-02    0.408E-02
RMM:   6    -0.995295959241E+03   -0.90692E-06   -0.42261E-05  7312   0.118E-02    0.390E-02
RMM:   7    -0.995295960466E+03   -0.12255E-05   -0.19182E-05  7191   0.625E-03    0.181E-02
RMM:   8    -0.995295960095E+03    0.37116E-06   -0.10466E-05  7048   0.579E-03
  14 F= -.99529596E+03 E0= -.99529596E+03  d E =-.346357E-02  mag=   120.0000
       N       E                     dE             d eps       ncg     rms          rms(c)
DAV:   1    -0.995292619183E+03    0.33413E-02   -0.83441E-01 12448   0.108E+00    0.459E-01
RMM:   2    -0.995296220558E+03   -0.36014E-02   -0.22175E-02 12612   0.209E-01    0.273E-01
RMM:   3    -0.995296626227E+03   -0.40567E-03   -0.13326E-03 12378   0.594E-02    0.137E-01
RMM:   4    -0.995296556804E+03    0.69423E-04   -0.15195E-04  8108   0.177E-02    0.848E-02
RMM:   5    -0.995296529876E+03    0.26929E-04   -0.13702E-04  7394   0.146E-02    0.307E-02
RMM:   6    -0.995296532183E+03   -0.23074E-05   -0.33385E-05  7203   0.107E-02    0.413E-02
RMM:   7    -0.995296533020E+03   -0.83653E-06   -0.14138E-05  7062   0.545E-03    0.113E-02
RMM:   8    -0.995296533062E+03   -0.42448E-07   -0.72785E-06  6652   0.485E-03
  15 F= -.99529653E+03 E0= -.99529653E+03  d E =-.403654E-02  mag=   120.0000
       N       E                     dE             d eps       ncg     rms          rms(c)
DAV:   1    -0.995290033863E+03    0.64992E-02   -0.24357E+00 12480   0.185E+00    0.646E-01
RMM:   2    -0.995298555899E+03   -0.85220E-02   -0.64537E-02 12614   0.353E-01    0.389E-01
RMM:   3    -0.995299283952E+03   -0.72805E-03   -0.38409E-03 12918   0.994E-02    0.205E-01
RMM:   4    -0.995299120507E+03    0.16345E-03   -0.48569E-04 10741   0.273E-02    0.124E-01
RMM:   5    -0.995299055501E+03    0.65006E-04   -0.36856E-04  9639   0.206E-02    0.359E-02
RMM:   6    -0.995299058438E+03   -0.29365E-05   -0.37951E-05  7272   0.110E-02    0.302E-02
RMM:   7    -0.995299060253E+03   -0.18158E-05   -0.18304E-05  7099   0.566E-03    0.149E-02
RMM:   8    -0.995299060714E+03   -0.46013E-06   -0.10254E-05  6812   0.551E-03
  16 F= -.99529906E+03 E0= -.99529906E+03  d E =-.252765E-02  mag=   120.0000
       N       E                     dE             d eps       ncg     rms          rms(c)
DAV:   1    -0.995296475711E+03    0.25845E-02   -0.82505E-01 12584   0.108E+00    0.374E-01
RMM:   2    -0.995299372826E+03   -0.28971E-02   -0.21956E-02 12606   0.206E-01    0.225E-01
RMM:   3    -0.995299618279E+03   -0.24545E-03   -0.13143E-03 12127   0.581E-02    0.121E-01
RMM:   4    -0.995299560798E+03    0.57481E-04   -0.13629E-04  7705   0.162E-02    0.734E-02
RMM:   5    -0.995299539275E+03    0.21523E-04   -0.11012E-04  7307   0.129E-02    0.261E-02
RMM:   6    -0.995299542688E+03   -0.34134E-05   -0.23416E-05  7132   0.830E-03    0.243E-02
RMM:   7    -0.995299543877E+03   -0.11886E-05   -0.11468E-05  6945   0.464E-03    0.108E-02
RMM:   8    -0.995299544338E+03   -0.46096E-06   -0.64651E-06  6538   0.453E-03
  17 F= -.99529954E+03 E0= -.99529954E+03  d E =-.301128E-02  mag=   120.0000
       N       E                     dE             d eps       ncg     rms          rms(c)
DAV:   1    -0.995295365896E+03    0.41780E-02   -0.16367E+00 12352   0.151E+00    0.523E-01
RMM:   2    -0.995301134636E+03   -0.57687E-02   -0.44859E-02 12590   0.295E-01    0.320E-01
RMM:   3    -0.995301573910E+03   -0.43927E-03   -0.26698E-03 13080   0.813E-02    0.174E-01
RMM:   4    -0.995301434343E+03    0.13957E-03   -0.33152E-04  9251   0.233E-02    0.101E-01
RMM:   5    -0.995301393370E+03    0.40973E-04   -0.20244E-04  7664   0.175E-02    0.408E-02
RMM:   6    -0.995301397076E+03   -0.37064E-05   -0.36790E-05  7233   0.112E-02    0.353E-02
RMM:   7    -0.995301398411E+03   -0.13352E-05   -0.16334E-05  7038   0.558E-03    0.153E-02
RMM:   8    -0.995301398517E+03   -0.10540E-06   -0.91189E-06  6897   0.546E-03
  18 F= -.99530140E+03 E0= -.99530140E+03  d E =-.185418E-02  mag=   120.0000
       N       E                     dE             d eps       ncg     rms          rms(c)
DAV:   1    -0.995301127467E+03    0.27094E-03   -0.98156E-02 12816   0.369E-01    0.127E-01
RMM:   2    -0.995301476785E+03   -0.34932E-03   -0.27299E-03 12346   0.725E-02    0.777E-02
RMM:   3    -0.995301498462E+03   -0.21677E-04   -0.12221E-04  7491   0.212E-02    0.434E-02
RMM:   4    -0.995301493824E+03    0.46385E-05   -0.32622E-05  7088   0.946E-03    0.255E-02
RMM:   5    -0.995301492142E+03    0.16818E-05   -0.18211E-05  6580   0.546E-03    0.141E-02
RMM:   6    -0.995301492662E+03   -0.51961E-06   -0.57043E-06  5785   0.418E-03    0.981E-03
RMM:   7    -0.995301492928E+03   -0.26656E-06   -0.25150E-06  4036   0.242E-03    0.335E-03
RMM:   8    -0.995301493003E+03   -0.75190E-07   -0.12500E-06  3566   0.250E-03
  19 F= -.99530149E+03 E0= -.99530149E+03  d E =-.194867E-02  mag=   120.0000
       N       E                     dE             d eps       ncg     rms          rms(c)
DAV:   1    -0.995296903373E+03    0.45896E-02   -0.15179E+00 12464   0.145E+00    0.535E-01
RMM:   2    -0.995302486836E+03   -0.55835E-02   -0.39894E-02 12594   0.276E-01    0.318E-01
RMM:   3    -0.995303003273E+03   -0.51644E-03   -0.23451E-03 12705   0.787E-02    0.159E-01
RMM:   4    -0.995302888157E+03    0.11512E-03   -0.31832E-04  9175   0.229E-02    0.928E-02
RMM:   5    -0.995302847516E+03    0.40641E-04   -0.20096E-04  7648   0.174E-02    0.375E-02
RMM:   6    -0.995302851422E+03   -0.39058E-05   -0.40097E-05  7215   0.118E-02    0.400E-02
RMM:   7    -0.995302852765E+03   -0.13424E-05   -0.17121E-05  7074   0.591E-03    0.147E-02
RMM:   8    -0.995302853049E+03   -0.28445E-06   -0.91695E-06  6797   0.543E-03
  20 F= -.99530285E+03 E0= -.99530285E+03  d E =-.136005E-02  mag=   120.0000
       N       E                     dE             d eps       ncg     rms          rms(c)
DAV:   1    -0.995302727009E+03    0.12576E-03   -0.40762E-02 12768   0.238E-01    0.872E-02
RMM:   2    -0.995302879517E+03   -0.15251E-03   -0.10944E-03 11999   0.455E-02    0.523E-02
RMM:   3    -0.995302892078E+03   -0.12562E-04   -0.52950E-05  7050   0.148E-02    0.271E-02
RMM:   4    -0.995302891140E+03    0.93848E-06   -0.15866E-05  6757   0.623E-03    0.162E-02
RMM:   5    -0.995302890429E+03    0.71074E-06   -0.82742E-06  6111   0.392E-03    0.914E-03
RMM:   6    -0.995302890706E+03   -0.27698E-06   -0.28714E-06  4964   0.312E-03    0.663E-03
RMM:   7    -0.995302890819E+03   -0.11291E-06   -0.92863E-07  3007   0.202E-03    0.243E-03
RMM:   8    -0.995302890871E+03   -0.51732E-07   -0.51884E-07  2691   0.213E-03
  21 F= -.99530289E+03 E0= -.99530289E+03  d E =-.139787E-02  mag=   120.0000
       N       E                     dE             d eps       ncg     rms          rms(c)
DAV:   1    -0.995297359885E+03    0.55309E-02   -0.13566E+00 12304   0.136E+00    0.578E-01
RMM:   2    -0.995303195550E+03   -0.58357E-02   -0.34313E-02 12710   0.255E-01    0.331E-01
RMM:   3    -0.995303873145E+03   -0.67760E-03   -0.18915E-03 12425   0.714E-02    0.144E-01
RMM:   4    -0.995303760105E+03    0.11304E-03   -0.31130E-04  9198   0.229E-02    0.840E-02
RMM:   5    -0.995303722951E+03    0.37154E-04   -0.19325E-04  7722   0.172E-02    0.415E-02
RMM:   6    -0.995303726001E+03   -0.30500E-05   -0.37816E-05  7215   0.112E-02    0.373E-02
RMM:   7    -0.995303726905E+03   -0.90312E-06   -0.15552E-05  7018   0.561E-03    0.150E-02
RMM:   8    -0.995303727011E+03   -0.10694E-06   -0.82470E-06  6706   0.510E-03
  22 F= -.99530373E+03 E0= -.99530373E+03  d E =-.836141E-03  mag=   120.0000
       N       E                     dE             d eps       ncg     rms          rms(c)
DAV:   1    -0.995303689926E+03    0.36979E-04   -0.92161E-03 13128   0.112E-01    0.482E-02
RMM:   2    -0.995303725956E+03   -0.36030E-04   -0.19648E-04  8028   0.208E-02    0.301E-02
RMM:   3    -0.995303732745E+03   -0.67892E-05   -0.21144E-05  6481   0.968E-03    0.134E-02
RMM:   4    -0.995303732551E+03    0.19437E-06   -0.45912E-06  5014   0.358E-03    0.915E-03
RMM:   5    -0.995303732158E+03    0.39324E-06   -0.16978E-06  4169   0.267E-03    0.411E-03
RMM:   6    -0.995303732150E+03    0.75233E-08   -0.46005E-07  1939   0.180E-03    0.164E-03
RMM:   7    -0.995303732151E+03   -0.52387E-09   -0.94247E-08  1421   0.167E-03    0.862E-04
RMM:   8    -0.995303732156E+03   -0.59372E-08   -0.23982E-09  1218   0.163E-03
  23 F= -.99530373E+03 E0= -.99530373E+03  d E =-.841286E-03  mag=   120.0000
