<?xml version="1.0" encoding="ISO-8859-1"?>
<modeling>
 <generator>
  <i name="program" type="string">vasp </i>
  <i name="version" type="string">5.4.1  </i>
  <i name="subversion" type="string">05Feb16 (build Jan 25 2017 20:16:33) complex                          parallel </i>
  <i name="platform" type="string">BWXE6 </i>
  <i name="date" type="string">2019 08 06 </i>
  <i name="time" type="string">15:40:57 </i>
 </generator>
 <incar>
  <i type="string" name="SYSTEM"> STF</i>
  <i type="string" name="PREC">normal</i>
  <i type="string" name="ALGO"> Fast</i>
  <i type="int" name="ISPIN">     2</i>
  <i type="int" name="NELM">    40</i>
  <i type="int" name="NELMIN">     8</i>
  <i type="int" name="IBRION">     2</i>
  <i name="EDIFF">      0.00010000</i>
  <i name="EDIFFG">     -0.03000000</i>
  <i type="int" name="NSW">    30</i>
  <i type="int" name="ISIF">     3</i>
  <i name="ENCUT">    520.00000000</i>
  <i type="int" name="NBANDS">   768</i>
  <v name="MAGMOM">      0.60000000      0.60000000      0.60000000      0.60000000      0.60000000      0.60000000      0.60000000      0.60000000      0.60000000      0.60000000      0.60000000      0.60000000      0.60000000      0.60000000      0.60000000      0.60000000      0.60000000      0.60000000      0.60000000      0.60000000
      0.60000000      0.60000000      0.60000000      0.60000000      0.60000000      0.60000000      0.60000000      0.60000000      0.60000000      0.60000000      0.60000000      0.60000000      0.60000000      0.60000000      0.60000000      0.60000000      0.60000000      0.60000000      0.60000000      0.60000000
      5.00000000      5.00000000      5.00000000      5.00000000      5.00000000      5.00000000      5.00000000      5.00000000      5.00000000      5.00000000      5.00000000      5.00000000      5.00000000      5.00000000      5.00000000      5.00000000      5.00000000      5.00000000      5.00000000      5.00000000
      5.00000000      5.00000000      5.00000000      5.00000000      0.60000000      0.60000000      0.60000000      0.60000000      0.60000000      0.60000000      0.60000000      0.60000000      0.60000000      0.60000000      0.60000000      0.60000000      0.60000000      0.60000000      0.60000000      0.60000000
      0.60000000      0.60000000      0.60000000      0.60000000      0.60000000      0.60000000      0.60000000      0.60000000      0.60000000      0.60000000      0.60000000      0.60000000      0.60000000      0.60000000      0.60000000      0.60000000      0.60000000      0.60000000      0.60000000      0.60000000
      0.60000000      0.60000000      0.60000000      0.60000000      0.60000000      0.60000000      0.60000000      0.60000000      0.60000000      0.60000000      0.60000000      0.60000000      0.60000000      0.60000000      0.60000000      0.60000000      0.60000000      0.60000000      0.60000000      0.60000000
      0.60000000      0.60000000      0.60000000      0.60000000      0.60000000      0.60000000      0.60000000      0.60000000      0.60000000      0.60000000      0.60000000      0.60000000      0.60000000      0.60000000      0.60000000      0.60000000      0.60000000      0.60000000      0.60000000      0.60000000
      0.60000000      0.60000000      0.60000000      0.60000000      0.60000000      0.60000000      0.60000000      0.60000000</v>
  <i type="string" name="LREAL"> Auto</i>
  <i type="int" name="ISMEAR">     0</i>
  <i name="SIGMA">      0.05000000</i>
  <i type="int" name="LMAXMIX">     4</i>
  <v type="int" name="KPOINT_BSE">    -1     0     0     0</v>
  <i type="int" name="NELM">    40</i>
  <i type="logical" name="LDAU"> T  </i>
  <v type="int" name="LDAUTYPE">     2</v>
  <v type="int" name="LDAUL">     0     2     2     0</v>
  <v name="LDAUU">      0.00000000      3.00000000      5.00000000      0.00000000</v>
  <v name="LDAUJ">      0.00000000      0.00000000      0.00000000      0.00000000</v>
  <i type="int" name="LDAUPRINT">     1</i>
 </incar>
 <kpoints>
  <generation param="Monkhorst-Pack">
   <v type="int" name="divisions">       2        2        2 </v>
   <v name="usershift">      0.00000000       0.00000000       0.00000000 </v>
   <v name="genvec1">      0.50000000       0.00000000      -0.00000000 </v>
   <v name="genvec2">     -0.00000000       0.50000000      -0.00000000 </v>
   <v name="genvec3">     -0.00000000       0.00000000       0.50000000 </v>
   <v name="shift">      0.50000000       0.50000000       0.50000000 </v>
  </generation>
  <varray name="kpointlist" >
   <v>       0.25000000       0.25000000       0.25000000 </v>
   <v>      -0.25000000       0.25000000       0.25000000 </v>
   <v>       0.25000000      -0.25000000       0.25000000 </v>
   <v>      -0.25000000      -0.25000000       0.25000000 </v>
  </varray>
  <varray name="weights" >
   <v>       0.25000000 </v>
   <v>       0.25000000 </v>
   <v>       0.25000000 </v>
   <v>       0.25000000 </v>
  </varray>
 </kpoints>
 <parameters>
  <separator name="general" >
   <i type="string" name="SYSTEM">STF</i>
   <i type="logical" name="LCOMPAT"> F  </i>
  </separator>
  <separator name="electronic" >
   <i type="string" name="PREC">normal</i>
   <i name="ENMAX">    520.00000000</i>
   <i name="ENAUG">    605.39200000</i>
   <i name="EDIFF">      0.00010000</i>
   <i type="int" name="IALGO">    68</i>
   <i type="int" name="IWAVPR">    11</i>
   <i type="int" name="NBANDS">   768</i>
   <i name="NELECT">   1048.00000000</i>
   <i type="int" name="TURBO">     0</i>
   <i type="int" name="IRESTART">     0</i>
   <i type="int" name="NREBOOT">     0</i>
   <i type="int" name="NMIN">     0</i>
   <i name="EREF">      0.00000000</i>
   <separator name="electronic smearing" >
    <i type="int" name="ISMEAR">     0</i>
    <i name="SIGMA">      0.05000000</i>
    <i name="KSPACING">      0.50000000</i>
    <i type="logical" name="KGAMMA"> T  </i>
   </separator>
   <separator name="electronic projectors" >
    <i type="logical" name="LREAL"> T  </i>
    <v name="ROPT">     -0.00050000     -0.00050000     -0.00050000     -0.00050000</v>
    <i type="int" name="LMAXPAW">  -100</i>
    <i type="int" name="LMAXMIX">     4</i>
    <i type="logical" name="NLSPLINE"> F  </i>
   </separator>
   <separator name="electronic startup" >
    <i type="int" name="ISTART">     1</i>
    <i type="int" name="ICHARG">     0</i>
    <i type="int" name="INIWAV">     1</i>
   </separator>
   <separator name="electronic spin" >
    <i type="int" name="ISPIN">     2</i>
    <i type="logical" name="LNONCOLLINEAR"> F  </i>
    <v name="MAGMOM">      0.60000000      0.60000000      0.60000000      0.60000000      0.60000000      0.60000000      0.60000000      0.60000000      0.60000000      0.60000000      0.60000000      0.60000000      0.60000000      0.60000000      0.60000000      0.60000000      0.60000000      0.60000000      0.60000000      0.60000000
      0.60000000      0.60000000      0.60000000      0.60000000      0.60000000      0.60000000      0.60000000      0.60000000      0.60000000      0.60000000      0.60000000      0.60000000      0.60000000      0.60000000      0.60000000      0.60000000      0.60000000      0.60000000      0.60000000      0.60000000
      5.00000000      5.00000000      5.00000000      5.00000000      5.00000000      5.00000000      5.00000000      5.00000000      5.00000000      5.00000000      5.00000000      5.00000000      5.00000000      5.00000000      5.00000000      5.00000000      5.00000000      5.00000000      5.00000000      5.00000000
      5.00000000      5.00000000      5.00000000      5.00000000      0.60000000      0.60000000      0.60000000      0.60000000      0.60000000      0.60000000      0.60000000      0.60000000      0.60000000      0.60000000      0.60000000      0.60000000      0.60000000      0.60000000      0.60000000      0.60000000
      0.60000000      0.60000000      0.60000000      0.60000000      0.60000000      0.60000000      0.60000000      0.60000000      0.60000000      0.60000000      0.60000000      0.60000000      0.60000000      0.60000000      0.60000000      0.60000000      0.60000000      0.60000000      0.60000000      0.60000000
      0.60000000      0.60000000      0.60000000      0.60000000      0.60000000      0.60000000      0.60000000      0.60000000      0.60000000      0.60000000      0.60000000      0.60000000      0.60000000      0.60000000      0.60000000      0.60000000      0.60000000      0.60000000      0.60000000      0.60000000
      0.60000000      0.60000000      0.60000000      0.60000000      0.60000000      0.60000000      0.60000000      0.60000000      0.60000000      0.60000000      0.60000000      0.60000000      0.60000000      0.60000000      0.60000000      0.60000000      0.60000000      0.60000000      0.60000000      0.60000000
      0.60000000      0.60000000      0.60000000      0.60000000      0.60000000      0.60000000      0.60000000      0.60000000</v>
    <i name="NUPDOWN">     -1.00000000</i>
    <i type="logical" name="LSORBIT"> F  </i>
    <v name="SAXIS">      0.00000000      0.00000000      1.00000000</v>
    <i type="logical" name="LSPIRAL"> F  </i>
    <v name="QSPIRAL">      0.00000000      0.00000000      0.00000000</v>
    <i type="logical" name="LZEROZ"> F  </i>
   </separator>
   <separator name="electronic exchange-correlation" >
    <i type="logical" name="LASPH"> F  </i>
    <i type="logical" name="LMETAGGA"> F  </i>
   </separator>
   <separator name="electronic convergence" >
    <i type="int" name="NELM">    40</i>
    <i type="int" name="NELMDL">     0</i>
    <i type="int" name="NELMIN">     8</i>
    <i name="ENINI">    520.00000000</i>
    <separator name="electronic convergence detail" >
     <i type="logical" name="LDIAG"> T  </i>
     <i type="logical" name="LSUBROT"> F  </i>
     <i name="WEIMIN">      0.00100000</i>
     <i name="EBREAK">      0.00000003</i>
     <i name="DEPER">      0.30000000</i>
     <i type="int" name="NRMM">     4</i>
     <i name="TIME">      0.40000000</i>
    </separator>
   </separator>
   <separator name="electronic mixer" >
    <i name="AMIX">      0.40000000</i>
    <i name="BMIX">      1.00000000</i>
    <i name="AMIN">      0.10000000</i>
    <i name="AMIX_MAG">      1.60000000</i>
    <i name="BMIX_MAG">      1.00000000</i>
    <separator name="electronic mixer details" >
     <i type="int" name="IMIX">     4</i>
     <i type="logical" name="MIXFIRST"> F  </i>
     <i type="int" name="MAXMIX">   -45</i>
     <i name="WC">    100.00000000</i>
     <i type="int" name="INIMIX">     1</i>
     <i type="int" name="MIXPRE">     1</i>
     <i type="int" name="MREMOVE">     5</i>
    </separator>
   </separator>
   <separator name="electronic dipolcorrection" >
    <i type="logical" name="LDIPOL"> F  </i>
    <i type="logical" name="LMONO"> F  </i>
    <i type="int" name="IDIPOL">     0</i>
    <i name="EPSILON">      1.00000000</i>
    <v name="DIPOL">   -100.00000000   -100.00000000   -100.00000000</v>
    <i name="EFIELD">      0.00000000</i>
   </separator>
  </separator>
  <separator name="grids" >
   <i type="int" name="NGX">    64</i>
   <i type="int" name="NGY">    64</i>
   <i type="int" name="NGZ">    90</i>
   <i type="int" name="NGXF">   128</i>
   <i type="int" name="NGYF">   128</i>
   <i type="int" name="NGZF">   180</i>
   <i type="logical" name="ADDGRID"> F  </i>
  </separator>
  <separator name="ionic" >
   <i type="int" name="NSW">    30</i>
   <i type="int" name="IBRION">     2</i>
   <i type="int" name="ISIF">     3</i>
   <i name="PSTRESS">      0.00000000</i>
   <i name="EDIFFG">     -0.03000000</i>
   <i type="int" name="NFREE">     1</i>
   <i name="POTIM">      0.50000000</i>
   <i name="SMASS">     -3.00000000</i>
   <i name="SCALEE">      1.00000000</i>
  </separator>
  <separator name="ionic md" >
   <i name="TEBEG">      0.00010000</i>
   <i name="TEEND">      0.00010000</i>
   <i type="int" name="NBLOCK">     1</i>
   <i type="int" name="KBLOCK">    30</i>
   <i type="int" name="NPACO">   256</i>
   <i name="APACO">     16.00000000</i>
  </separator>
  <separator name="symmetry" >
   <i type="int" name="ISYM">     2</i>
   <i name="SYMPREC">      0.00001000</i>
  </separator>
  <separator name="dos" >
   <i type="logical" name="LORBIT"> F  </i>
   <v name="RWIGS">     -1.00000000     -1.00000000     -1.00000000     -1.00000000</v>
   <i type="int" name="NEDOS">   301</i>
   <i name="EMIN">     10.00000000</i>
   <i name="EMAX">    -10.00000000</i>
   <i name="EFERMI">      0.00000000</i>
  </separator>
  <separator name="writing" >
   <i type="int" name="NWRITE">     2</i>
   <i type="logical" name="LWAVE"> T  </i>
   <i type="logical" name="LCHARG"> T  </i>
   <i type="logical" name="LPARD"> F  </i>
   <i type="logical" name="LVTOT"> F  </i>
   <i type="logical" name="LVHAR"> F  </i>
   <i type="logical" name="LELF"> F  </i>
   <i type="logical" name="LOPTICS"> F  </i>
   <v name="STM">      0.00000000      0.00000000      0.00000000      0.00000000      0.00000000      0.00000000      0.00000000</v>
  </separator>
  <separator name="performance" >
   <i type="int" name="NPAR">     2</i>
   <i type="int" name="NSIM">     4</i>
   <i type="int" name="NBLK">    -1</i>
   <i type="logical" name="LPLANE"> T  </i>
   <i type="logical" name="LSCALAPACK"> T  </i>
   <i type="logical" name="LSCAAWARE"> F  </i>
   <i type="logical" name="LSCALU"> F  </i>
   <i type="logical" name="LASYNC"> F  </i>
   <i type="logical" name="LORBITALREAL"> F  </i>
  </separator>
  <separator name="miscellaneous" >
   <i type="int" name="IDIOT">     3</i>
   <i type="logical" name="LMUSIC"> F  </i>
   <v name="POMASS">     87.62000000     47.88000000     55.84700000     16.00000000</v>
   <v name="DARWINR">      0.00000000      0.00000000      0.00000000      0.00000000</v>
   <v name="DARWINV">      1.00000000      1.00000000      1.00000000      1.00000000</v>
   <i type="logical" name="LCORR"> T  </i>
  </separator>
  <i type="logical" name="GGA_COMPAT"> T  </i>
  <i type="logical" name="LBERRY"> F  </i>
  <i type="int" name="ICORELEVEL">     0</i>
  <i type="logical" name="LDAU"> T  </i>
  <v type="int" name="LDAUTYPE">     2</v>
  <v type="int" name="LDAUL">     0</v>
  <v name="LDAUU">      0.00000000</v>
  <v name="LDAUJ">      0.00000000</v>
  <i type="int" name="LDAUPRINT">     1</i>
  <i type="int" name="I_CONSTRAINED_M">     0</i>
  <separator name="electronic exchange-correlation" >
   <i type="string" name="GGA">--</i>
   <i type="int" name="VOSKOWN">     0</i>
   <i type="logical" name="LHFCALC"> F  </i>
   <i type="string" name="PRECFOCK"></i>
   <i type="logical" name="LSYMGRAD"> F  </i>
   <i type="logical" name="LHFONE"> F  </i>
   <i type="logical" name="LRHFCALC"> F  </i>
   <i type="logical" name="LTHOMAS"> F  </i>
   <i type="logical" name="LMODELHF"> F  </i>
   <i name="ENCUT4O">     -1.00000000</i>
   <i type="int" name="EXXOEP">     0</i>
   <i type="int" name="FOURORBIT">     0</i>
   <i name="AEXX">      0.00000000</i>
   <i name="HFALPHA">      0.00000000</i>
   <i name="MCALPHA">      0.00000000</i>
   <i name="ALDAX">      1.00000000</i>
   <i name="AGGAX">      1.00000000</i>
   <i name="ALDAC">      1.00000000</i>
   <i name="AGGAC">      1.00000000</i>
   <i type="int" name="NKREDX">     1</i>
   <i type="int" name="NKREDY">     1</i>
   <i type="int" name="NKREDZ">     1</i>
   <i type="logical" name="SHIFTRED"> F  </i>
   <i type="logical" name="ODDONLY"> F  </i>
   <i type="logical" name="EVENONLY"> F  </i>
   <i type="int" name="LMAXFOCK">     0</i>
   <i type="int" name="NMAXFOCKAE">     0</i>
   <i type="logical" name="LFOCKAEDFT"> F  </i>
   <i name="HFSCREEN">      0.00000000</i>
   <i name="HFSCREENC">      0.00000000</i>
   <i type="int" name="NBANDSGWLOW">     0</i>
  </separator>
  <separator name="vdW DFT" >
   <i type="logical" name="LUSE_VDW"> F  </i>
   <i name="Zab_VDW">     -0.84910000</i>
   <i name="PARAM1">      0.12340000</i>
   <i name="PARAM2">      1.00000000</i>
   <i name="PARAM3">      0.00000000</i>
  </separator>
  <separator name="model GW" >
   <i type="int" name="MODEL_GW">     0</i>
   <i name="MODEL_EPS0">      8.14272038</i>
   <i name="MODEL_ALPHA">      1.00000000</i>
  </separator>
  <separator name="linear response parameters" >
   <i type="logical" name="LEPSILON"> F  </i>
   <i type="logical" name="LRPA"> F  </i>
   <i type="logical" name="LNABLA"> F  </i>
   <i type="logical" name="LVEL"> F  </i>
   <i type="int" name="KINTER">     0</i>
   <i name="CSHIFT">      0.10000000</i>
   <i name="OMEGAMAX">     -1.00000000</i>
   <i name="DEG_THRESHOLD">      0.00200000</i>
  </separator>
  <separator name="orbital magnetization" >
   <i type="logical" name="NUCIND"> F  </i>
   <v name="MAGPOS">      0.00000000      0.00000000      0.00000000</v>
   <i type="logical" name="LNICSALL"> T  </i>
   <i type="logical" name="ORBITALMAG"> F  </i>
   <i type="logical" name="LMAGBLOCH"> F  </i>
   <i type="logical" name="LCHIMAG"> F  </i>
   <i type="logical" name="LGAUGE"> T  </i>
   <i type="int" name="MAGATOM">     0</i>
   <v name="MAGDIPOL">      0.00000000      0.00000000      0.00000000</v>
   <v name="AVECCONST">      0.00000000      0.00000000      0.00000000</v>
  </separator>
  <separator name="response functions" >
   <i type="logical" name="LADDER"> F  </i>
   <i type="logical" name="LFXC"> F  </i>
   <i type="logical" name="LHARTREE"> T  </i>
   <i type="int" name="IBSE">     0</i>
   <v type="int" name="KPOINT">    -1     0     0     0</v>
   <i type="logical" name="LTCTE"> F  </i>
   <i type="logical" name="LTETE"> F  </i>
   <i type="logical" name="LTRIPLET"> F  </i>
   <i type="logical" name="LFXCEPS"> F  </i>
   <i type="logical" name="LFXHEG"> F  </i>
   <i type="int" name="NATURALO">     0</i>
   <i type="logical" name="L2ORDER"> F  </i>
   <i type="logical" name="LUSEW"> F  </i>
   <i name="ENCUTGW">     -2.00000000</i>
   <i name="ENCUTGWSOFT">     -2.00000000</i>
   <i name="ENCUTLF">     -1.00000000</i>
   <i type="int" name="LMAXMP2">    -1</i>
   <i name="SCISSOR">      0.00000000</i>
   <i type="int" name="NOMEGA">     0</i>
   <i type="int" name="NOMEGAR">     0</i>
   <i type="int" name="NBANDSGW">    -1</i>
   <i type="int" name="NBANDSO">    -1</i>
   <i type="int" name="NBANDSV">    -1</i>
   <i type="int" name="NELM">    40</i>
   <i type="int" name="NELMHF">     1</i>
   <i type="int" name="DIM">     3</i>
   <i type="int" name="ANTIRES">     0</i>
   <i name="OMEGAMAX">    -30.00000000</i>
   <i name="OMEGAMIN">    -30.00000000</i>
   <i name="OMEGATL">   -200.00000000</i>
   <i type="int" name="OMEGAGRID">     0</i>
   <i name="CSHIFT">     -0.10000000</i>
   <i type="logical" name="SELFENERGY"> F  </i>
   <i type="logical" name="LSPECTRAL"> F  </i>
   <i type="logical" name="LSPECTRALGW"> F  </i>
   <i type="logical" name="LSINGLES"> F  </i>
   <i type="logical" name="LFERMIGW"> F  </i>
   <i type="logical" name="ODDONLYGW"> F  </i>
   <i type="logical" name="EVENONLYGW"> F  </i>
   <i type="int" name="NKREDLFX">     1</i>
   <i type="int" name="NKREDLFY">     1</i>
   <i type="int" name="NKREDLFZ">     1</i>
   <i type="int" name="MAXMEM">  1800</i>
   <i type="int" name="TELESCOPE">     0</i>
   <i type="int" name="TAUPAR">     1</i>
   <i type="int" name="OMEGAPAR">    -1</i>
   <i name="LAMBDA">      1.00000000</i>
  </separator>
  <separator name="External order field" >
   <i name="OFIELD_KAPPA">      0.00000000</i>
   <v name="OFIELD_K">      0.00000000      0.00000000      0.00000000</v>
   <i name="OFIELD_Q6_NEAR">      0.00000000</i>
   <i name="OFIELD_Q6_FAR">      0.00000000</i>
   <i name="OFIELD_A">      0.00000000</i>
  </separator>
 </parameters>
 <atominfo>
  <atoms>     148 </atoms>
  <types>       4 </types>
  <array name="atoms" >
   <dimension dim="1">ion</dimension>
   <field type="string">element</field>
   <field type="int">atomtype</field>
   <set>
    <rc><c>Sr</c><c>   1</c></rc>
    <rc><c>Sr</c><c>   1</c></rc>
    <rc><c>Sr</c><c>   1</c></rc>
    <rc><c>Sr</c><c>   1</c></rc>
    <rc><c>Sr</c><c>   1</c></rc>
    <rc><c>Sr</c><c>   1</c></rc>
    <rc><c>Sr</c><c>   1</c></rc>
    <rc><c>Sr</c><c>   1</c></rc>
    <rc><c>Sr</c><c>   1</c></rc>
    <rc><c>Sr</c><c>   1</c></rc>
    <rc><c>Sr</c><c>   1</c></rc>
    <rc><c>Sr</c><c>   1</c></rc>
    <rc><c>Sr</c><c>   1</c></rc>
    <rc><c>Sr</c><c>   1</c></rc>
    <rc><c>Sr</c><c>   1</c></rc>
    <rc><c>Sr</c><c>   1</c></rc>
    <rc><c>Sr</c><c>   1</c></rc>
    <rc><c>Sr</c><c>   1</c></rc>
    <rc><c>Sr</c><c>   1</c></rc>
    <rc><c>Sr</c><c>   1</c></rc>
    <rc><c>Sr</c><c>   1</c></rc>
    <rc><c>Sr</c><c>   1</c></rc>
    <rc><c>Sr</c><c>   1</c></rc>
    <rc><c>Sr</c><c>   1</c></rc>
    <rc><c>Sr</c><c>   1</c></rc>
    <rc><c>Sr</c><c>   1</c></rc>
    <rc><c>Sr</c><c>   1</c></rc>
    <rc><c>Sr</c><c>   1</c></rc>
    <rc><c>Sr</c><c>   1</c></rc>
    <rc><c>Sr</c><c>   1</c></rc>
    <rc><c>Sr</c><c>   1</c></rc>
    <rc><c>Sr</c><c>   1</c></rc>
    <rc><c>Ti</c><c>   2</c></rc>
    <rc><c>Ti</c><c>   2</c></rc>
    <rc><c>Ti</c><c>   2</c></rc>
    <rc><c>Ti</c><c>   2</c></rc>
    <rc><c>Ti</c><c>   2</c></rc>
    <rc><c>Ti</c><c>   2</c></rc>
    <rc><c>Ti</c><c>   2</c></rc>
    <rc><c>Ti</c><c>   2</c></rc>
    <rc><c>Fe</c><c>   3</c></rc>
    <rc><c>Fe</c><c>   3</c></rc>
    <rc><c>Fe</c><c>   3</c></rc>
    <rc><c>Fe</c><c>   3</c></rc>
    <rc><c>Fe</c><c>   3</c></rc>
    <rc><c>Fe</c><c>   3</c></rc>
    <rc><c>Fe</c><c>   3</c></rc>
    <rc><c>Fe</c><c>   3</c></rc>
    <rc><c>Fe</c><c>   3</c></rc>
    <rc><c>Fe</c><c>   3</c></rc>
    <rc><c>Fe</c><c>   3</c></rc>
    <rc><c>Fe</c><c>   3</c></rc>
    <rc><c>Fe</c><c>   3</c></rc>
    <rc><c>Fe</c><c>   3</c></rc>
    <rc><c>Fe</c><c>   3</c></rc>
    <rc><c>Fe</c><c>   3</c></rc>
    <rc><c>Fe</c><c>   3</c></rc>
    <rc><c>Fe</c><c>   3</c></rc>
    <rc><c>Fe</c><c>   3</c></rc>
    <rc><c>Fe</c><c>   3</c></rc>
    <rc><c>Fe</c><c>   3</c></rc>
    <rc><c>Fe</c><c>   3</c></rc>
    <rc><c>Fe</c><c>   3</c></rc>
    <rc><c>Fe</c><c>   3</c></rc>
    <rc><c>O </c><c>   4</c></rc>
    <rc><c>O </c><c>   4</c></rc>
    <rc><c>O </c><c>   4</c></rc>
    <rc><c>O </c><c>   4</c></rc>
    <rc><c>O </c><c>   4</c></rc>
    <rc><c>O </c><c>   4</c></rc>
    <rc><c>O </c><c>   4</c></rc>
    <rc><c>O </c><c>   4</c></rc>
    <rc><c>O </c><c>   4</c></rc>
    <rc><c>O </c><c>   4</c></rc>
    <rc><c>O </c><c>   4</c></rc>
    <rc><c>O </c><c>   4</c></rc>
    <rc><c>O </c><c>   4</c></rc>
    <rc><c>O </c><c>   4</c></rc>
    <rc><c>O </c><c>   4</c></rc>
    <rc><c>O </c><c>   4</c></rc>
    <rc><c>O </c><c>   4</c></rc>
    <rc><c>O </c><c>   4</c></rc>
    <rc><c>O </c><c>   4</c></rc>
    <rc><c>O </c><c>   4</c></rc>
    <rc><c>O </c><c>   4</c></rc>
    <rc><c>O </c><c>   4</c></rc>
    <rc><c>O </c><c>   4</c></rc>
    <rc><c>O </c><c>   4</c></rc>
    <rc><c>O </c><c>   4</c></rc>
    <rc><c>O </c><c>   4</c></rc>
    <rc><c>O </c><c>   4</c></rc>
    <rc><c>O </c><c>   4</c></rc>
    <rc><c>O </c><c>   4</c></rc>
    <rc><c>O </c><c>   4</c></rc>
    <rc><c>O </c><c>   4</c></rc>
    <rc><c>O </c><c>   4</c></rc>
    <rc><c>O </c><c>   4</c></rc>
    <rc><c>O </c><c>   4</c></rc>
    <rc><c>O </c><c>   4</c></rc>
    <rc><c>O </c><c>   4</c></rc>
    <rc><c>O </c><c>   4</c></rc>
    <rc><c>O </c><c>   4</c></rc>
    <rc><c>O </c><c>   4</c></rc>
    <rc><c>O </c><c>   4</c></rc>
    <rc><c>O </c><c>   4</c></rc>
    <rc><c>O </c><c>   4</c></rc>
    <rc><c>O </c><c>   4</c></rc>
    <rc><c>O </c><c>   4</c></rc>
    <rc><c>O </c><c>   4</c></rc>
    <rc><c>O </c><c>   4</c></rc>
    <rc><c>O </c><c>   4</c></rc>
    <rc><c>O </c><c>   4</c></rc>
    <rc><c>O </c><c>   4</c></rc>
    <rc><c>O </c><c>   4</c></rc>
    <rc><c>O </c><c>   4</c></rc>
    <rc><c>O </c><c>   4</c></rc>
    <rc><c>O </c><c>   4</c></rc>
    <rc><c>O </c><c>   4</c></rc>
    <rc><c>O </c><c>   4</c></rc>
    <rc><c>O </c><c>   4</c></rc>
    <rc><c>O </c><c>   4</c></rc>
    <rc><c>O </c><c>   4</c></rc>
    <rc><c>O </c><c>   4</c></rc>
    <rc><c>O </c><c>   4</c></rc>
    <rc><c>O </c><c>   4</c></rc>
    <rc><c>O </c><c>   4</c></rc>
    <rc><c>O </c><c>   4</c></rc>
    <rc><c>O </c><c>   4</c></rc>
    <rc><c>O </c><c>   4</c></rc>
    <rc><c>O </c><c>   4</c></rc>
    <rc><c>O </c><c>   4</c></rc>
    <rc><c>O </c><c>   4</c></rc>
    <rc><c>O </c><c>   4</c></rc>
    <rc><c>O </c><c>   4</c></rc>
    <rc><c>O </c><c>   4</c></rc>
    <rc><c>O </c><c>   4</c></rc>
    <rc><c>O </c><c>   4</c></rc>
    <rc><c>O </c><c>   4</c></rc>
    <rc><c>O </c><c>   4</c></rc>
    <rc><c>O </c><c>   4</c></rc>
    <rc><c>O </c><c>   4</c></rc>
    <rc><c>O </c><c>   4</c></rc>
    <rc><c>O </c><c>   4</c></rc>
    <rc><c>O </c><c>   4</c></rc>
    <rc><c>O </c><c>   4</c></rc>
    <rc><c>O </c><c>   4</c></rc>
    <rc><c>O </c><c>   4</c></rc>
    <rc><c>O </c><c>   4</c></rc>
   </set>
  </array>
  <array name="atomtypes" >
   <dimension dim="1">type</dimension>
   <field type="int">atomspertype</field>
   <field type="string">element</field>
   <field>mass</field>
   <field>valence</field>
   <field type="string">pseudopotential</field>
   <set>
    <rc><c>  32</c><c>Sr</c><c>     87.62000000</c><c>     10.00000000</c><c>  PAW_PBE Sr_sv 07Sep2000               </c></rc>
    <rc><c>   8</c><c>Ti</c><c>     47.88000000</c><c>      4.00000000</c><c>  PAW_PBE Ti 08Apr2002                  </c></rc>
    <rc><c>  24</c><c>Fe</c><c>     55.84700000</c><c>      8.00000000</c><c>  PAW_PBE Fe 06Sep2000                  </c></rc>
    <rc><c>  84</c><c>O </c><c>     16.00000000</c><c>      6.00000000</c><c>  PAW_PBE O 08Apr2002                   </c></rc>
   </set>
  </array>
 </atominfo>
 <structure name="initialpos" >
  <crystal>
   <varray name="basis" >
    <v>      11.25122829       0.00745505      -0.00740480 </v>
    <v>       0.00808643      11.43321008       0.01901261 </v>
    <v>      -0.01028932       0.02488189      15.61397247 </v>
   </varray>
   <i name="volume">   2008.53769285 </i>
   <varray name="rec_basis" >
    <v>       0.08887927      -0.00006296       0.00005867 </v>
    <v>      -0.00005805       0.08746477      -0.00013942 </v>
    <v>       0.00004222      -0.00010653       0.06404540 </v>
   </varray>
  </crystal>
  <varray name="positions" >
   <v>       0.99732457       0.23912115       0.11255895 </v>
   <v>       0.99075869       0.26182051       0.61780156 </v>
   <v>       0.00316057       0.74876212       0.11308054 </v>
   <v>       0.00201488       0.74649231       0.61539129 </v>
   <v>       0.50720992       0.24013764       0.11894154 </v>
   <v>       0.50599173       0.26057164       0.60957927 </v>
   <v>       0.50544234       0.75038937       0.11647121 </v>
   <v>       0.49442347       0.75084840       0.61118073 </v>
   <v>       0.99400827       0.23942836       0.39042073 </v>
   <v>       0.99279008       0.25986236       0.88105846 </v>
   <v>       0.00557653       0.74915160       0.38881927 </v>
   <v>       0.99455766       0.74961063       0.88352879 </v>
   <v>       0.50924131       0.23817949       0.38219844 </v>
   <v>       0.50267543       0.26087885       0.88744105 </v>
   <v>       0.49798512       0.75350769       0.38460871 </v>
   <v>       0.49683943       0.75123788       0.88691946 </v>
   <v>       0.24789543       0.00436409       0.11030998 </v>
   <v>       0.24781144       0.98538297       0.61309023 </v>
   <v>       0.25156727       0.51067617       0.11509122 </v>
   <v>       0.25392628       0.49884627       0.60970693 </v>
   <v>       0.75393349       0.01077848       0.11863714 </v>
   <v>       0.74409948       0.00460360       0.61377883 </v>
   <v>       0.75539750       0.49520401       0.11537936 </v>
   <v>       0.74435889       0.48788997       0.61498363 </v>
   <v>       0.24607372       0.00115373       0.39029307 </v>
   <v>       0.24843273       0.98932383       0.88490878 </v>
   <v>       0.25218856       0.51461703       0.38690977 </v>
   <v>       0.25210457       0.49563591       0.88969002 </v>
   <v>       0.75564111       0.01211003       0.38501637 </v>
   <v>       0.74460250       0.00479599       0.88462064 </v>
   <v>       0.75590052       0.49539640       0.38622117 </v>
   <v>       0.74606651       0.48922152       0.88136286 </v>
   <v>       0.75930637       0.23934679       0.24979015 </v>
   <v>       0.00038379       0.99828036       0.99760055 </v>
   <v>       0.74069363       0.26065321       0.75020985 </v>
   <v>       0.25000000       0.25000000       0.50000000 </v>
   <v>       0.49961621       0.50171964       0.00239945 </v>
   <v>       0.75000000       0.75000000       0.50000000 </v>
   <v>       0.49867981       0.99920073       0.00097361 </v>
   <v>       0.00132019       0.50079927       0.99902639 </v>
   <v>       0.23952215       0.70349137       0.75160446 </v>
   <v>       0.25000000       0.75000000       0.50000000 </v>
   <v>       0.00174320       0.50050092       0.50352307 </v>
   <v>       0.75000000       0.25000000       0.50000000 </v>
   <v>       0.49825680       0.99949908       0.49647693 </v>
   <v>       0.49977540       0.50191614       0.49749442 </v>
   <v>       0.50170401       0.51312497       0.74792546 </v>
   <v>       0.00022460       0.99808386       0.50250558 </v>
   <v>       0.25000000       0.25000000       0.00000000 </v>
   <v>       0.75000000       0.25000000       0.00000000 </v>
   <v>       0.75000000       0.75000000       0.00000000 </v>
   <v>       0.25000000       0.75000000       0.00000000 </v>
   <v>       0.25796282       0.28057070       0.25213299 </v>
   <v>       0.24203718       0.21942930       0.74786701 </v>
   <v>       0.26047785       0.79650863       0.24839554 </v>
   <v>       0.52053841       0.99201088       0.25095979 </v>
   <v>       0.76612388       0.77615872       0.25231940 </v>
   <v>       0.73387612       0.72384128       0.74768060 </v>
   <v>       0.99829599       0.98687503       0.25207454 </v>
   <v>       0.98209238       0.03368179       0.75070158 </v>
   <v>       0.01041872       0.46795705       0.24915584 </v>
   <v>       0.97946159       0.50798912       0.74904021 </v>
   <v>       0.48958128       0.03204295       0.75084416 </v>
   <v>       0.51790762       0.46631821       0.24929842 </v>
   <v>       0.01038068       0.01346281       0.12261829 </v>
   <v>       0.00459457       0.96104102       0.64620205 </v>
   <v>       0.99316422       0.52753849       0.13471598 </v>
   <v>       0.02314278       0.48063491       0.63263517 </v>
   <v>       0.48422384       0.01774074       0.12775191 </v>
   <v>       0.51469997       0.96501808       0.64397684 </v>
   <v>       0.49800692       0.52964177       0.13732878 </v>
   <v>       0.48791574       0.48299889       0.62615372 </v>
   <v>       0.01208426       0.01700111       0.37384628 </v>
   <v>       0.00199308       0.97035823       0.86267122 </v>
   <v>       0.98530003       0.53498192       0.35602316 </v>
   <v>       0.01577616       0.48225926       0.87224809 </v>
   <v>       0.47685722       0.01936509       0.36736483 </v>
   <v>       0.50683578       0.97246151       0.86528402 </v>
   <v>       0.49540543       0.53895898       0.35379795 </v>
   <v>       0.48961932       0.48653719       0.87738171 </v>
   <v>       0.23876769       0.21833333       0.36395329 </v>
   <v>       0.26398900       0.28329809       0.85825768 </v>
   <v>       0.23724586       0.73383833       0.35876315 </v>
   <v>       0.26512789       0.77068574       0.86106330 </v>
   <v>       0.75846281       0.23863031       0.37420311 </v>
   <v>       0.74299767       0.26106792       0.87661973 </v>
   <v>       0.74840884       0.71935468       0.36575805 </v>
   <v>       0.75459683       0.78688085       0.85811599 </v>
   <v>       0.23601100       0.21670191       0.14174232 </v>
   <v>       0.26123231       0.28166667       0.63604671 </v>
   <v>       0.23487211       0.72931426       0.13893670 </v>
   <v>       0.26275414       0.76616167       0.64123685 </v>
   <v>       0.75700233       0.23893208       0.12338027 </v>
   <v>       0.74153719       0.26136969       0.62579689 </v>
   <v>       0.74540317       0.71311915       0.14188401 </v>
   <v>       0.75159116       0.78064532       0.63424195 </v>
   <v>       0.17631525       0.42699944       0.25122961 </v>
   <v>       0.41731657       0.33238260       0.24963546 </v>
   <v>       0.67318039       0.40152743       0.24959088 </v>
   <v>       0.91961575       0.33165818       0.24864148 </v>
   <v>       0.17035074       0.93811818       0.24830795 </v>
   <v>       0.42169128       0.84180197       0.24655544 </v>
   <v>       0.66530981       0.90615720       0.25111655 </v>
   <v>       0.92591348       0.83281832       0.24996320 </v>
   <v>       0.12691764       0.12829560       0.51678934 </v>
   <v>       0.37194889       0.12603362       0.51329602 </v>
   <v>       0.62107543       0.12221133       0.50337878 </v>
   <v>       0.87715754       0.12083262       0.51190978 </v>
   <v>       0.12805111       0.37396638       0.48670398 </v>
   <v>       0.37308236       0.37170440       0.48321066 </v>
   <v>       0.62284246       0.37916738       0.48809022 </v>
   <v>       0.87892457       0.37778867       0.49662122 </v>
   <v>       0.12459030       0.62603439       0.50353986 </v>
   <v>       0.37416136       0.62667187       0.49962377 </v>
   <v>       0.62631867       0.62819523       0.50963338 </v>
   <v>       0.87282693       0.62629623       0.51207482 </v>
   <v>       0.12583864       0.87332813       0.50037623 </v>
   <v>       0.37540970       0.87396561       0.49646014 </v>
   <v>       0.62717307       0.87370377       0.48792518 </v>
   <v>       0.87368133       0.87180477       0.49036662 </v>
   <v>       0.08268343       0.16761740       0.75036454 </v>
   <v>       0.32368475       0.07300056       0.74877039 </v>
   <v>       0.58038425       0.16834182       0.75135852 </v>
   <v>       0.82681961       0.09847257       0.75040912 </v>
   <v>       0.07830872       0.65819803       0.75344456 </v>
   <v>       0.32964926       0.56188182       0.75169205 </v>
   <v>       0.57408652       0.66718168       0.75003680 </v>
   <v>       0.83469019       0.59384280       0.74888345 </v>
   <v>       0.12488009       0.12563104       0.98434028 </v>
   <v>       0.37336684       0.12385427       0.98714117 </v>
   <v>       0.62034794       0.12245524       0.99551455 </v>
   <v>       0.87751134       0.12025613       0.98924688 </v>
   <v>       0.12663316       0.37614573       0.01285883 </v>
   <v>       0.37511991       0.37436896       0.01565972 </v>
   <v>       0.62248866       0.37974387       0.01075312 </v>
   <v>       0.87965206       0.37754476       0.00448545 </v>
   <v>       0.12421315       0.62631617       0.99420800 </v>
   <v>       0.37368924       0.62591729       0.99950644 </v>
   <v>       0.62448696       0.62637794       0.99036782 </v>
   <v>       0.87406739       0.62403446       0.98883328 </v>
   <v>       0.12631076       0.87408271       0.00049356 </v>
   <v>       0.37578685       0.87368383       0.00579200 </v>
   <v>       0.62593261       0.87596554       0.01116672 </v>
   <v>       0.87551304       0.87362206       0.00963218 </v>
   <v>       0.61180570       0.14676368       0.24829951 </v>
   <v>       0.86348623       0.09797009       0.24774070 </v>
   <v>       0.63651377       0.40202991       0.75225930 </v>
   <v>       0.88819430       0.35323632       0.75170049 </v>
  </varray>
 </structure>
 <calculation>
  <scstep>
   <time name="dav">  301.92  302.00</time>
   <time name="total">  305.85  305.94</time>
   <energy>
    <i name="alphaZ">   5594.82508810 </i>
    <i name="ewald"> -62857.25283410 </i>
    <i name="hartreedc"> -18767.94835151 </i>
    <i name="XCdc">   3409.99310085 </i>
    <i name="pawpsdc"> 120928.46775927 </i>
    <i name="pawaedc">-120434.25320896 </i>
    <i name="eentropy">     -0.00000000 </i>
    <i name="bandstr">  -7185.94406373 </i>
    <i name="atom">  78316.90445604 </i>
    <i name="e_fr_energy">   -995.20805404 </i>
    <i name="e_wo_entrp">   -995.20805404 </i>
    <i name="e_0_energy">   -995.20805404 </i>
   </energy>
  </scstep>
  <scstep>
   <time name="diag">   33.30   33.32</time>
   <time name="diis">   33.34   33.35</time>
   <time name="orth">   19.01   19.02</time>
   <time name="total">   89.53   89.58</time>
   <energy>
    <i name="e_fr_energy">   -995.20806573 </i>
    <i name="e_wo_entrp">   -995.20806573 </i>
    <i name="e_0_energy">   -995.20806573 </i>
   </energy>
  </scstep>
  <scstep>
   <time name="diag">   33.30   33.30</time>
   <time name="diis">   32.02   32.04</time>
   <time name="orth">   19.02   19.02</time>
   <time name="total">   88.21   88.27</time>
   <energy>
    <i name="e_fr_energy">   -995.20806813 </i>
    <i name="e_wo_entrp">   -995.20806813 </i>
    <i name="e_0_energy">   -995.20806813 </i>
   </energy>
  </scstep>
  <scstep>
   <time name="diag">   33.35   33.35</time>
   <time name="diis">   31.75   31.75</time>
   <time name="orth">   19.02   19.02</time>
   <time name="total">   87.98   88.08</time>
   <energy>
    <i name="e_fr_energy">   -995.20808411 </i>
    <i name="e_wo_entrp">   -995.20808411 </i>
    <i name="e_0_energy">   -995.20808411 </i>
   </energy>
  </scstep>
  <scstep>
   <time name="diag">   33.29   33.31</time>
   <time name="diis">   31.63   31.63</time>
   <time name="orth">   19.04   19.04</time>
   <time name="total">   87.85   87.96</time>
   <energy>
    <i name="e_fr_energy">   -995.20808857 </i>
    <i name="e_wo_entrp">   -995.20808857 </i>
    <i name="e_0_energy">   -995.20808857 </i>
   </energy>
  </scstep>
  <scstep>
   <time name="diag">   33.29   33.31</time>
   <time name="diis">   30.33   30.33</time>
   <time name="orth">   19.02   19.02</time>
   <time name="total">   86.53   86.58</time>
   <energy>
    <i name="e_fr_energy">   -995.20808959 </i>
    <i name="e_wo_entrp">   -995.20808959 </i>
    <i name="e_0_energy">   -995.20808959 </i>
   </energy>
  </scstep>
  <scstep>
   <time name="diag">   33.29   33.32</time>
   <time name="diis">   28.52   28.53</time>
   <time name="orth">   18.94   18.94</time>
   <time name="total">   84.65   84.77</time>
   <energy>
    <i name="e_fr_energy">   -995.20808996 </i>
    <i name="e_wo_entrp">   -995.20808996 </i>
    <i name="e_0_energy">   -995.20808996 </i>
   </energy>
  </scstep>
  <scstep>
   <time name="diag">   33.33   33.37</time>
   <time name="diis">   26.71   26.72</time>
   <time name="orth">   18.96   18.96</time>
   <time name="total">   79.57   79.66</time>
   <energy>
    <i name="alphaZ">   5594.82508810 </i>
    <i name="ewald"> -62857.25283410 </i>
    <i name="hartreedc"> -18767.88884726 </i>
    <i name="XCdc">   3409.98717658 </i>
    <i name="pawpsdc"> 120914.72874725 </i>
    <i name="pawaedc">-120420.46513648 </i>
    <i name="eentropy">     -0.00000000 </i>
    <i name="bandstr">  -7186.04674031 </i>
    <i name="atom">  78316.90445604 </i>
    <i name="e_fr_energy">   -995.20809017 </i>
    <i name="e_wo_entrp">   -995.20809017 </i>
    <i name="e_0_energy">   -995.20809017 </i>
   </energy>
  </scstep>
  <structure>
   <crystal>
    <varray name="basis" >
     <v>      11.25122829       0.00745505      -0.00740480 </v>
     <v>       0.00808643      11.43321008       0.01901261 </v>
     <v>      -0.01028932       0.02488189      15.61397247 </v>
    </varray>
    <i name="volume">   2008.53769285 </i>
    <varray name="rec_basis" >
     <v>       0.08887927      -0.00006296       0.00005867 </v>
     <v>      -0.00005805       0.08746477      -0.00013942 </v>
     <v>       0.00004222      -0.00010653       0.06404540 </v>
    </varray>
   </crystal>
   <varray name="positions" >
    <v>       0.99732457       0.23912115       0.11255895 </v>
    <v>       0.99075869       0.26182051       0.61780156 </v>
    <v>       0.00316057       0.74876212       0.11308054 </v>
    <v>       0.00201488       0.74649231       0.61539129 </v>
    <v>       0.50720992       0.24013764       0.11894154 </v>
    <v>       0.50599173       0.26057164       0.60957927 </v>
    <v>       0.50544234       0.75038937       0.11647121 </v>
    <v>       0.49442347       0.75084840       0.61118073 </v>
    <v>       0.99400827       0.23942836       0.39042073 </v>
    <v>       0.99279008       0.25986236       0.88105846 </v>
    <v>       0.00557653       0.74915160       0.38881927 </v>
    <v>       0.99455766       0.74961063       0.88352879 </v>
    <v>       0.50924131       0.23817949       0.38219844 </v>
    <v>       0.50267543       0.26087885       0.88744105 </v>
    <v>       0.49798512       0.75350769       0.38460871 </v>
    <v>       0.49683943       0.75123788       0.88691946 </v>
    <v>       0.24789543       0.00436409       0.11030998 </v>
    <v>       0.24781144       0.98538297       0.61309023 </v>
    <v>       0.25156727       0.51067617       0.11509122 </v>
    <v>       0.25392628       0.49884627       0.60970693 </v>
    <v>       0.75393349       0.01077848       0.11863714 </v>
    <v>       0.74409948       0.00460360       0.61377883 </v>
    <v>       0.75539750       0.49520401       0.11537936 </v>
    <v>       0.74435889       0.48788997       0.61498363 </v>
    <v>       0.24607372       0.00115373       0.39029307 </v>
    <v>       0.24843273       0.98932383       0.88490878 </v>
    <v>       0.25218856       0.51461703       0.38690977 </v>
    <v>       0.25210457       0.49563591       0.88969002 </v>
    <v>       0.75564111       0.01211003       0.38501637 </v>
    <v>       0.74460250       0.00479599       0.88462064 </v>
    <v>       0.75590052       0.49539640       0.38622117 </v>
    <v>       0.74606651       0.48922152       0.88136286 </v>
    <v>       0.75930637       0.23934679       0.24979015 </v>
    <v>       0.00038379       0.99828036       0.99760055 </v>
    <v>       0.74069363       0.26065321       0.75020985 </v>
    <v>       0.25000000       0.25000000       0.50000000 </v>
    <v>       0.49961621       0.50171964       0.00239945 </v>
    <v>       0.75000000       0.75000000       0.50000000 </v>
    <v>       0.49867981       0.99920073       0.00097361 </v>
    <v>       0.00132019       0.50079927       0.99902639 </v>
    <v>       0.23952215       0.70349137       0.75160446 </v>
    <v>       0.25000000       0.75000000       0.50000000 </v>
    <v>       0.00174320       0.50050092       0.50352307 </v>
    <v>       0.75000000       0.25000000       0.50000000 </v>
    <v>       0.49825680       0.99949908       0.49647693 </v>
    <v>       0.49977540       0.50191614       0.49749442 </v>
    <v>       0.50170401       0.51312497       0.74792546 </v>
    <v>       0.00022460       0.99808386       0.50250558 </v>
    <v>       0.25000000       0.25000000       0.00000000 </v>
    <v>       0.75000000       0.25000000       0.00000000 </v>
    <v>       0.75000000       0.75000000       0.00000000 </v>
    <v>       0.25000000       0.75000000       0.00000000 </v>
    <v>       0.25796282       0.28057070       0.25213299 </v>
    <v>       0.24203718       0.21942930       0.74786701 </v>
    <v>       0.26047785       0.79650863       0.24839554 </v>
    <v>       0.52053841       0.99201088       0.25095979 </v>
    <v>       0.76612388       0.77615872       0.25231940 </v>
    <v>       0.73387612       0.72384128       0.74768060 </v>
    <v>       0.99829599       0.98687503       0.25207454 </v>
    <v>       0.98209238       0.03368179       0.75070158 </v>
    <v>       0.01041872       0.46795705       0.24915584 </v>
    <v>       0.97946159       0.50798912       0.74904021 </v>
    <v>       0.48958128       0.03204295       0.75084416 </v>
    <v>       0.51790762       0.46631821       0.24929842 </v>
    <v>       0.01038068       0.01346281       0.12261829 </v>
    <v>       0.00459457       0.96104102       0.64620205 </v>
    <v>       0.99316422       0.52753849       0.13471598 </v>
    <v>       0.02314278       0.48063491       0.63263517 </v>
    <v>       0.48422384       0.01774074       0.12775191 </v>
    <v>       0.51469997       0.96501808       0.64397684 </v>
    <v>       0.49800692       0.52964177       0.13732878 </v>
    <v>       0.48791574       0.48299889       0.62615372 </v>
    <v>       0.01208426       0.01700111       0.37384628 </v>
    <v>       0.00199308       0.97035823       0.86267122 </v>
    <v>       0.98530003       0.53498192       0.35602316 </v>
    <v>       0.01577616       0.48225926       0.87224809 </v>
    <v>       0.47685722       0.01936509       0.36736483 </v>
    <v>       0.50683578       0.97246151       0.86528402 </v>
    <v>       0.49540543       0.53895898       0.35379795 </v>
    <v>       0.48961932       0.48653719       0.87738171 </v>
    <v>       0.23876769       0.21833333       0.36395329 </v>
    <v>       0.26398900       0.28329809       0.85825768 </v>
    <v>       0.23724586       0.73383833       0.35876315 </v>
    <v>       0.26512789       0.77068574       0.86106330 </v>
    <v>       0.75846281       0.23863031       0.37420311 </v>
    <v>       0.74299767       0.26106792       0.87661973 </v>
    <v>       0.74840884       0.71935468       0.36575805 </v>
    <v>       0.75459683       0.78688085       0.85811599 </v>
    <v>       0.23601100       0.21670191       0.14174232 </v>
    <v>       0.26123231       0.28166667       0.63604671 </v>
    <v>       0.23487211       0.72931426       0.13893670 </v>
    <v>       0.26275414       0.76616167       0.64123685 </v>
    <v>       0.75700233       0.23893208       0.12338027 </v>
    <v>       0.74153719       0.26136969       0.62579689 </v>
    <v>       0.74540317       0.71311915       0.14188401 </v>
    <v>       0.75159116       0.78064532       0.63424195 </v>
    <v>       0.17631525       0.42699944       0.25122961 </v>
    <v>       0.41731657       0.33238260       0.24963546 </v>
    <v>       0.67318039       0.40152743       0.24959088 </v>
    <v>       0.91961575       0.33165818       0.24864148 </v>
    <v>       0.17035074       0.93811818       0.24830795 </v>
    <v>       0.42169128       0.84180197       0.24655544 </v>
    <v>       0.66530981       0.90615720       0.25111655 </v>
    <v>       0.92591348       0.83281832       0.24996320 </v>
    <v>       0.12691764       0.12829560       0.51678934 </v>
    <v>       0.37194889       0.12603362       0.51329602 </v>
    <v>       0.62107543       0.12221133       0.50337878 </v>
    <v>       0.87715754       0.12083262       0.51190978 </v>
    <v>       0.12805111       0.37396638       0.48670398 </v>
    <v>       0.37308236       0.37170440       0.48321066 </v>
    <v>       0.62284246       0.37916738       0.48809022 </v>
    <v>       0.87892457       0.37778867       0.49662122 </v>
    <v>       0.12459030       0.62603439       0.50353986 </v>
    <v>       0.37416136       0.62667187       0.49962377 </v>
    <v>       0.62631867       0.62819523       0.50963338 </v>
    <v>       0.87282693       0.62629623       0.51207482 </v>
    <v>       0.12583864       0.87332813       0.50037623 </v>
    <v>       0.37540970       0.87396561       0.49646014 </v>
    <v>       0.62717307       0.87370377       0.48792518 </v>
    <v>       0.87368133       0.87180477       0.49036662 </v>
    <v>       0.08268343       0.16761740       0.75036454 </v>
    <v>       0.32368475       0.07300056       0.74877039 </v>
    <v>       0.58038425       0.16834182       0.75135852 </v>
    <v>       0.82681961       0.09847257       0.75040912 </v>
    <v>       0.07830872       0.65819803       0.75344456 </v>
    <v>       0.32964926       0.56188182       0.75169205 </v>
    <v>       0.57408652       0.66718168       0.75003680 </v>
    <v>       0.83469019       0.59384280       0.74888345 </v>
    <v>       0.12488009       0.12563104       0.98434028 </v>
    <v>       0.37336684       0.12385427       0.98714117 </v>
    <v>       0.62034794       0.12245524       0.99551455 </v>
    <v>       0.87751134       0.12025613       0.98924688 </v>
    <v>       0.12663316       0.37614573       0.01285883 </v>
    <v>       0.37511991       0.37436896       0.01565972 </v>
    <v>       0.62248866       0.37974387       0.01075312 </v>
    <v>       0.87965206       0.37754476       0.00448545 </v>
    <v>       0.12421315       0.62631617       0.99420800 </v>
    <v>       0.37368924       0.62591729       0.99950644 </v>
    <v>       0.62448696       0.62637794       0.99036782 </v>
    <v>       0.87406739       0.62403446       0.98883328 </v>
    <v>       0.12631076       0.87408271       0.00049356 </v>
    <v>       0.37578685       0.87368383       0.00579200 </v>
    <v>       0.62593261       0.87596554       0.01116672 </v>
    <v>       0.87551304       0.87362206       0.00963218 </v>
    <v>       0.61180570       0.14676368       0.24829951 </v>
    <v>       0.86348623       0.09797009       0.24774070 </v>
    <v>       0.63651377       0.40202991       0.75225930 </v>
    <v>       0.88819430       0.35323632       0.75170049 </v>
   </varray>
  </structure>
  <varray name="forces" >
   <v>      -0.00607211      -0.06051641      -0.01914838 </v>
   <v>      -0.01614177      -0.02514665      -0.04134368 </v>
   <v>      -0.02198780       0.02066144      -0.02048686 </v>
   <v>       0.00699724       0.00177466      -0.00892368 </v>
   <v>       0.03440278      -0.02319930      -0.03800516 </v>
   <v>      -0.00138070       0.03185862      -0.01917628 </v>
   <v>       0.00458874       0.02620958       0.04717186 </v>
   <v>       0.00835639       0.00391309      -0.07725902 </v>
   <v>       0.00138070      -0.03185862       0.01917628 </v>
   <v>      -0.03440278       0.02319930       0.03800516 </v>
   <v>      -0.00835639      -0.00391309       0.07725902 </v>
   <v>      -0.00458874      -0.02620958      -0.04717186 </v>
   <v>       0.01614177       0.02514665       0.04134368 </v>
   <v>       0.00607211       0.06051641       0.01914838 </v>
   <v>      -0.00699724      -0.00177466       0.00892368 </v>
   <v>       0.02198780      -0.02066144       0.02048686 </v>
   <v>      -0.02350378       0.00246929      -0.02851945 </v>
   <v>       0.02905356       0.01753060      -0.06077498 </v>
   <v>      -0.01099165      -0.04375430      -0.04045085 </v>
   <v>       0.04729948       0.03098144      -0.07210590 </v>
   <v>       0.02502387      -0.00146875       0.03316312 </v>
   <v>      -0.01042208      -0.00730941      -0.06345158 </v>
   <v>      -0.02190735       0.01422587      -0.05384215 </v>
   <v>      -0.05467893       0.02643401       0.03413875 </v>
   <v>      -0.04729948      -0.03098144       0.07210590 </v>
   <v>       0.01099165       0.04375430       0.04045085 </v>
   <v>      -0.02905356      -0.01753060       0.06077498 </v>
   <v>       0.02350378      -0.00246929       0.02851945 </v>
   <v>       0.05467893      -0.02643401      -0.03413875 </v>
   <v>       0.02190735      -0.01422587       0.05384215 </v>
   <v>       0.01042208       0.00730941       0.06345158 </v>
   <v>      -0.02502387       0.00146875      -0.03316312 </v>
   <v>       0.00037977      -0.03267289      -0.01461102 </v>
   <v>      -0.03824474       0.07190920       0.00954611 </v>
   <v>      -0.00037977       0.03267289       0.01461102 </v>
   <v>       0.00000000       0.00000000       0.00000000 </v>
   <v>       0.03824474      -0.07190920      -0.00954611 </v>
   <v>       0.00000000       0.00000000       0.00000000 </v>
   <v>       0.05265922       0.08817166       0.09792847 </v>
   <v>      -0.05265922      -0.08817166      -0.09792847 </v>
   <v>       0.02538106      -0.02519924      -0.05351844 </v>
   <v>       0.00000000       0.00000000       0.00000000 </v>
   <v>      -0.02631308       0.02364303      -0.00943026 </v>
   <v>       0.00000000       0.00000000       0.00000000 </v>
   <v>       0.02631308      -0.02364303       0.00943026 </v>
   <v>      -0.00499451       0.01746839      -0.02414729 </v>
   <v>       0.00356508       0.01715479       0.06087650 </v>
   <v>       0.00499451      -0.01746839       0.02414729 </v>
   <v>       0.00000000       0.00000000       0.00000000 </v>
   <v>       0.00000000       0.00000000       0.00000000 </v>
   <v>       0.00000000       0.00000000       0.00000000 </v>
   <v>       0.00000000       0.00000000       0.00000000 </v>
   <v>       0.08372786       0.02251087      -0.04424349 </v>
   <v>      -0.08372786      -0.02251087       0.04424349 </v>
   <v>      -0.02538106       0.02519924       0.05351844 </v>
   <v>       0.02109038      -0.02093275      -0.10036855 </v>
   <v>      -0.00478213      -0.04487075       0.04186914 </v>
   <v>       0.00478213       0.04487075      -0.04186914 </v>
   <v>      -0.00356508      -0.01715479      -0.06087650 </v>
   <v>       0.00337668      -0.00844160       0.04162320 </v>
   <v>       0.00548945       0.02509186       0.02204767 </v>
   <v>      -0.02109038       0.02093275       0.10036855 </v>
   <v>      -0.00548945      -0.02509186      -0.02204767 </v>
   <v>      -0.00337668       0.00844160      -0.04162320 </v>
   <v>      -0.01794730      -0.03449481       0.03057917 </v>
   <v>      -0.00465500       0.02704689      -0.03162260 </v>
   <v>       0.00562098      -0.01194667      -0.05054763 </v>
   <v>      -0.01208231       0.04099615       0.03137878 </v>
   <v>       0.02023092      -0.03128094       0.01222919 </v>
   <v>      -0.02922191       0.02346546       0.04530846 </v>
   <v>       0.00916053       0.01067937       0.02542341 </v>
   <v>       0.06618798       0.03977865      -0.01218896 </v>
   <v>      -0.06618798      -0.03977865       0.01218896 </v>
   <v>      -0.00916053      -0.01067937      -0.02542341 </v>
   <v>       0.02922191      -0.02346546      -0.04530846 </v>
   <v>      -0.02023092       0.03128094      -0.01222919 </v>
   <v>       0.01208231      -0.04099615      -0.03137878 </v>
   <v>      -0.00562098       0.01194667       0.05054763 </v>
   <v>       0.00465500      -0.02704689       0.03162260 </v>
   <v>       0.01794730       0.03449481      -0.03057917 </v>
   <v>      -0.04936076       0.05592556       0.03221173 </v>
   <v>       0.04525893      -0.03618443      -0.04418232 </v>
   <v>       0.04461100      -0.03434255      -0.05994570 </v>
   <v>      -0.01941792       0.01684858       0.01604495 </v>
   <v>       0.02719732       0.05162941       0.01191115 </v>
   <v>      -0.02683071      -0.08670945      -0.05020026 </v>
   <v>       0.01433351      -0.01488303      -0.01891450 </v>
   <v>      -0.02551454       0.03204506       0.06463562 </v>
   <v>      -0.04525893       0.03618443       0.04418232 </v>
   <v>       0.04936076      -0.05592556      -0.03221173 </v>
   <v>       0.01941792      -0.01684858      -0.01604495 </v>
   <v>      -0.04461100       0.03434255       0.05994570 </v>
   <v>       0.02683071       0.08670945       0.05020026 </v>
   <v>      -0.02719732      -0.05162941      -0.01191115 </v>
   <v>       0.02551454      -0.03204506      -0.06463562 </v>
   <v>      -0.01433351       0.01488303       0.01891450 </v>
   <v>      -0.03454778      -0.00756105      -0.02179948 </v>
   <v>      -0.03514797      -0.02552901       0.01305232 </v>
   <v>       0.03804215       0.03621918      -0.00905106 </v>
   <v>       0.05316368      -0.01060268      -0.00811497 </v>
   <v>       0.00749729       0.03576880      -0.01416400 </v>
   <v>       0.01893244      -0.01852541       0.02002396 </v>
   <v>       0.08376708      -0.02746093      -0.00356929 </v>
   <v>       0.07972498      -0.00865062      -0.02791101 </v>
   <v>      -0.00737076      -0.01022539       0.01560525 </v>
   <v>       0.04787062       0.02767415      -0.01033509 </v>
   <v>       0.05406005      -0.02211243      -0.00917321 </v>
   <v>       0.01228937       0.05202558      -0.00685179 </v>
   <v>      -0.04787062      -0.02767415       0.01033509 </v>
   <v>       0.00737076       0.01022539      -0.01560525 </v>
   <v>      -0.01228937      -0.05202558       0.00685179 </v>
   <v>      -0.05406005       0.02211243       0.00917321 </v>
   <v>       0.07030014      -0.06129899       0.02521142 </v>
   <v>       0.02117768       0.01614306       0.03495511 </v>
   <v>      -0.00398876      -0.05878595      -0.00277385 </v>
   <v>       0.07579958      -0.02560260       0.04056309 </v>
   <v>      -0.02117768      -0.01614306      -0.03495511 </v>
   <v>      -0.07030014       0.06129899      -0.02521142 </v>
   <v>      -0.07579958       0.02560260      -0.04056309 </v>
   <v>       0.00398876       0.05878595       0.00277385 </v>
   <v>       0.03514797       0.02552901      -0.01305232 </v>
   <v>       0.03454778       0.00756105       0.02179948 </v>
   <v>      -0.05316368       0.01060268       0.00811497 </v>
   <v>      -0.03804215      -0.03621918       0.00905106 </v>
   <v>      -0.01893244       0.01852541      -0.02002396 </v>
   <v>      -0.00749729      -0.03576880       0.01416400 </v>
   <v>      -0.07972498       0.00865062       0.02791101 </v>
   <v>      -0.08376708       0.02746093       0.00356929 </v>
   <v>       0.03239379      -0.03919005      -0.00821834 </v>
   <v>       0.03543827      -0.00554634       0.00367467 </v>
   <v>       0.04867212      -0.04158846      -0.00776032 </v>
   <v>      -0.01040939       0.04429096      -0.00440450 </v>
   <v>      -0.03543827       0.00554634      -0.00367467 </v>
   <v>      -0.03239379       0.03919005       0.00821834 </v>
   <v>       0.01040939      -0.04429096       0.00440450 </v>
   <v>      -0.04867212       0.04158846       0.00776032 </v>
   <v>       0.05456239      -0.01647428      -0.02421836 </v>
   <v>       0.00242471       0.07390972      -0.01337738 </v>
   <v>       0.06413110       0.02897111       0.01220430 </v>
   <v>       0.04862417       0.04770159      -0.00695542 </v>
   <v>      -0.00242471      -0.07390972       0.01337738 </v>
   <v>      -0.05456239       0.01647428       0.02421836 </v>
   <v>      -0.04862417      -0.04770159       0.00695542 </v>
   <v>      -0.06413110      -0.02897111      -0.01220430 </v>
   <v>       0.06024589      -0.04078482       0.03283208 </v>
   <v>       0.05244034       0.00037110       0.00688051 </v>
   <v>      -0.05244034      -0.00037110      -0.00688051 </v>
   <v>      -0.06024589       0.04078482      -0.03283208 </v>
  </varray>
  <varray name="stress" >
   <v>       0.12201103      -0.07267270       0.02032810 </v>
   <v>      -0.07267243      -0.16845784       0.12823691 </v>
   <v>       0.02032791       0.12823691       0.32370403 </v>
  </varray>
  <energy>
   <i name="e_fr_energy">   -995.20809017 </i>
   <i name="e_wo_entrp">   -995.20809017 </i>
   <i name="e_0_energy">     -0.00000000 </i>
  </energy>
  <time name="totalsc"> 1062.81 1064.97</time>
 </calculation>
 <calculation>
  <scstep>
   <time name="dav">  291.77  291.78</time>
   <time name="total">  295.63  295.73</time>
   <energy>
    <i name="alphaZ">   5594.19133207 </i>
    <i name="ewald"> -62846.68363918 </i>
    <i name="hartreedc"> -18774.96504253 </i>
    <i name="XCdc">   3409.86032434 </i>
    <i name="pawpsdc"> 120914.78315220 </i>
    <i name="pawaedc">-120420.51879261 </i>
    <i name="eentropy">     -0.00000000 </i>
    <i name="bandstr">  -7188.77551532 </i>
    <i name="atom">  78316.90445604 </i>
    <i name="e_fr_energy">   -995.20372499 </i>
    <i name="e_wo_entrp">   -995.20372499 </i>
    <i name="e_0_energy">   -995.20372499 </i>
   </energy>
  </scstep>
  <scstep>
   <time name="diag">   33.30   33.33</time>
   <time name="diis">   52.71   52.75</time>
   <time name="orth">   19.00   19.02</time>
   <time name="total">  108.91  109.03</time>
   <energy>
    <i name="e_fr_energy">   -995.22416191 </i>
    <i name="e_wo_entrp">   -995.22416191 </i>
    <i name="e_0_energy">   -995.22416191 </i>
   </energy>
  </scstep>
  <scstep>
   <time name="diag">   33.37   33.37</time>
   <time name="diis">   56.48   56.52</time>
   <time name="orth">   18.98   18.99</time>
   <time name="total">  112.76  112.89</time>
   <energy>
    <i name="e_fr_energy">   -995.22593784 </i>
    <i name="e_wo_entrp">   -995.22593784 </i>
    <i name="e_0_energy">   -995.22593784 </i>
   </energy>
  </scstep>
  <scstep>
   <time name="diag">   33.31   33.34</time>
   <time name="diis">   54.42   54.42</time>
   <time name="orth">   19.02   19.02</time>
   <time name="total">  110.64  110.71</time>
   <energy>
    <i name="e_fr_energy">   -995.22524575 </i>
    <i name="e_wo_entrp">   -995.22524575 </i>
    <i name="e_0_energy">   -995.22524575 </i>
   </energy>
  </scstep>
  <scstep>
   <time name="diag">   33.36   33.38</time>
   <time name="diis">   49.56   49.56</time>
   <time name="orth">   18.97   18.97</time>
   <time name="total">  105.82  105.92</time>
   <energy>
    <i name="e_fr_energy">   -995.22499803 </i>
    <i name="e_wo_entrp">   -995.22499803 </i>
    <i name="e_0_energy">   -995.22499803 </i>
   </energy>
  </scstep>
  <scstep>
   <time name="diag">   33.37   33.36</time>
   <time name="diis">   34.28   34.30</time>
   <time name="orth">   18.97   18.97</time>
   <time name="total">   90.54   90.58</time>
   <energy>
    <i name="e_fr_energy">   -995.22499332 </i>
    <i name="e_wo_entrp">   -995.22499332 </i>
    <i name="e_0_energy">   -995.22499332 </i>
   </energy>
  </scstep>
  <scstep>
   <time name="diag">   33.31   33.31</time>
   <time name="diis">   32.70   32.70</time>
   <time name="orth">   18.99   18.98</time>
   <time name="total">   88.92   88.93</time>
   <energy>
    <i name="e_fr_energy">   -995.22499502 </i>
    <i name="e_wo_entrp">   -995.22499502 </i>
    <i name="e_0_energy">   -995.22499502 </i>
   </energy>
  </scstep>
  <scstep>
   <time name="diag">   33.34   33.34</time>
   <time name="diis">   32.53   32.53</time>
   <time name="orth">   18.96   18.96</time>
   <time name="total">   85.41   85.47</time>
   <energy>
    <i name="alphaZ">   5594.19133207 </i>
    <i name="ewald"> -62846.68363918 </i>
    <i name="hartreedc"> -18776.46283489 </i>
    <i name="XCdc">   3409.97233246 </i>
    <i name="pawpsdc"> 120901.33818850 </i>
    <i name="pawaedc">-120407.06377053 </i>
    <i name="eentropy">     -0.00000000 </i>
    <i name="bandstr">  -7187.42105946 </i>
    <i name="atom">  78316.90445604 </i>
    <i name="e_fr_energy">   -995.22499498 </i>
    <i name="e_wo_entrp">   -995.22499498 </i>
    <i name="e_0_energy">   -995.22499498 </i>
   </energy>
  </scstep>
  <structure>
   <crystal>
    <varray name="basis" >
     <v>      11.25178897       0.00712002      -0.00731193 </v>
     <v>       0.00774747      11.43242380       0.01961432 </v>
     <v>      -0.01016087       0.02569869      15.61603907 </v>
    </varray>
    <i name="volume">   2008.76523653 </i>
    <varray name="rec_basis" >
     <v>       0.08887483      -0.00006033       0.00005793 </v>
     <v>      -0.00005544       0.08747080      -0.00014398 </v>
     <v>       0.00004168      -0.00010989       0.06403693 </v>
    </varray>
   </crystal>
   <varray name="positions" >
    <v>       0.99729867       0.23886595       0.11250009 </v>
    <v>       0.99068944       0.26171473       0.61767391 </v>
    <v>       0.00306617       0.74884950       0.11301709 </v>
    <v>       0.00204486       0.74649984       0.61536372 </v>
    <v>       0.50735739       0.24003991       0.11882430 </v>
    <v>       0.50598566       0.26070620       0.60951986 </v>
    <v>       0.50546206       0.75049963       0.11661684 </v>
    <v>       0.49445907       0.75086540       0.61094201 </v>
    <v>       0.99401434       0.23929380       0.39048014 </v>
    <v>       0.99264261       0.25996009       0.88117570 </v>
    <v>       0.00554093       0.74913460       0.38905799 </v>
    <v>       0.99453794       0.74950037       0.88338316 </v>
    <v>       0.50931056       0.23828527       0.38232609 </v>
    <v>       0.50270133       0.26113405       0.88749991 </v>
    <v>       0.49795514       0.75350016       0.38463628 </v>
    <v>       0.49693383       0.75115050       0.88698291 </v>
    <v>       0.24779456       0.00437476       0.11022180 </v>
    <v>       0.24793579       0.98545727       0.61290242 </v>
    <v>       0.25152016       0.51049185       0.11496644 </v>
    <v>       0.25412879       0.49897735       0.60948408 </v>
    <v>       0.75404089       0.01077199       0.11873966 </v>
    <v>       0.74405464       0.00457322       0.61358280 </v>
    <v>       0.75530337       0.49526446       0.11521288 </v>
    <v>       0.74412446       0.48800144       0.61508886 </v>
    <v>       0.24587121       0.00102265       0.39051592 </v>
    <v>       0.24847984       0.98950815       0.88503356 </v>
    <v>       0.25206421       0.51454273       0.38709758 </v>
    <v>       0.25220544       0.49562524       0.88977820 </v>
    <v>       0.75587554       0.01199856       0.38491114 </v>
    <v>       0.74469663       0.00473554       0.88478712 </v>
    <v>       0.75594536       0.49542678       0.38641720 </v>
    <v>       0.74595911       0.48922801       0.88126034 </v>
    <v>       0.75930805       0.23920902       0.24974517 </v>
    <v>       0.00021962       0.99858383       0.99762959 </v>
    <v>       0.74069195       0.26079098       0.75025483 </v>
    <v>       0.25000000       0.25000000       0.50000000 </v>
    <v>       0.49978038       0.50141617       0.00237041 </v>
    <v>       0.75000000       0.75000000       0.50000000 </v>
    <v>       0.49890561       0.99957197       0.00127583 </v>
    <v>       0.00109439       0.50042803       0.99872417 </v>
    <v>       0.23963090       0.70338533       0.75143928 </v>
    <v>       0.25000000       0.75000000       0.50000000 </v>
    <v>       0.00163027       0.50060082       0.50349376 </v>
    <v>       0.75000000       0.25000000       0.50000000 </v>
    <v>       0.49836973       0.99939918       0.49650624 </v>
    <v>       0.49975386       0.50199002       0.49741971 </v>
    <v>       0.50171942       0.51319693       0.74811347 </v>
    <v>       0.00024614       0.99800998       0.50258029 </v>
    <v>       0.25000000       0.25000000       0.00000000 </v>
    <v>       0.75000000       0.25000000       0.00000000 </v>
    <v>       0.75000000       0.75000000       0.00000000 </v>
    <v>       0.25000000       0.75000000       0.00000000 </v>
    <v>       0.25832164       0.28066575       0.25199634 </v>
    <v>       0.24167836       0.21933425       0.74800366 </v>
    <v>       0.26036910       0.79661467       0.24856072 </v>
    <v>       0.52062862       0.99192317       0.25064983 </v>
    <v>       0.76610363       0.77596912       0.25244898 </v>
    <v>       0.73389637       0.72403088       0.74755102 </v>
    <v>       0.99828058       0.98680307       0.25188653 </v>
    <v>       0.98210701       0.03364588       0.75083023 </v>
    <v>       0.01044225       0.46806276       0.24922385 </v>
    <v>       0.97937138       0.50807683       0.74935017 </v>
    <v>       0.48955775       0.03193724       0.75077615 </v>
    <v>       0.51789299       0.46635412       0.24916977 </v>
    <v>       0.01030392       0.01331710       0.12271291 </v>
    <v>       0.00457444       0.96115537       0.64610420 </v>
    <v>       0.99318822       0.52748841       0.13455987 </v>
    <v>       0.02309093       0.48080772       0.63273189 </v>
    <v>       0.48431071       0.01760861       0.12778990 </v>
    <v>       0.51457473       0.96511687       0.64411665 </v>
    <v>       0.49804624       0.52968663       0.13740729 </v>
    <v>       0.48819939       0.48316664       0.62611599 </v>
    <v>       0.01180061       0.01683336       0.37388401 </v>
    <v>       0.00195376       0.97031337       0.86259271 </v>
    <v>       0.98542527       0.53488313       0.35588335 </v>
    <v>       0.01568929       0.48239139       0.87221010 </v>
    <v>       0.47690907       0.01919228       0.36726811 </v>
    <v>       0.50681178       0.97251159       0.86544013 </v>
    <v>       0.49542556       0.53884463       0.35389580 </v>
    <v>       0.48969608       0.48668290       0.87728709 </v>
    <v>       0.23855597       0.21856923       0.36405243 </v>
    <v>       0.26418304       0.28314558       0.85812145 </v>
    <v>       0.23743708       0.73369370       0.35857820 </v>
    <v>       0.26504462       0.77075678       0.86111275 </v>
    <v>       0.75857930       0.23884800       0.37423970 </v>
    <v>       0.74288275       0.26070246       0.87646501 </v>
    <v>       0.74847029       0.71929197       0.36569972 </v>
    <v>       0.75448751       0.78701570       0.85831548 </v>
    <v>       0.23581696       0.21685442       0.14187855 </v>
    <v>       0.26144403       0.28143077       0.63594757 </v>
    <v>       0.23495538       0.72924322       0.13888725 </v>
    <v>       0.26256292       0.76630630       0.64142180 </v>
    <v>       0.75711725       0.23929754       0.12353499 </v>
    <v>       0.74142070       0.26115200       0.62576030 </v>
    <v>       0.74551249       0.71298430       0.14168452 </v>
    <v>       0.75152971       0.78070803       0.63430028 </v>
    <v>       0.17616708       0.42696778       0.25116222 </v>
    <v>       0.41716598       0.33227489       0.24967585 </v>
    <v>       0.67334337       0.40168021       0.24956281 </v>
    <v>       0.91984371       0.33161334       0.24861657 </v>
    <v>       0.17038274       0.93826918       0.24826402 </v>
    <v>       0.42177257       0.84172361       0.24661745 </v>
    <v>       0.66566906       0.90604112       0.25110583 </v>
    <v>       0.92625527       0.83278178       0.24987717 </v>
    <v>       0.12688611       0.12825237       0.51683759 </v>
    <v>       0.37215403       0.12615033       0.51326405 </v>
    <v>       0.62130727       0.12211794       0.50335066 </v>
    <v>       0.87721006       0.12105216       0.51188837 </v>
    <v>       0.12784597       0.37384967       0.48673595 </v>
    <v>       0.37311389       0.37174763       0.48316241 </v>
    <v>       0.62278994       0.37894784       0.48811163 </v>
    <v>       0.87869273       0.37788206       0.49664934 </v>
    <v>       0.12489199       0.62577537       0.50361822 </v>
    <v>       0.37425221       0.62673970       0.49973173 </v>
    <v>       0.62630174       0.62794721       0.50962510 </v>
    <v>       0.87315213       0.62618771       0.51220044 </v>
    <v>       0.12574779       0.87326030       0.50026827 </v>
    <v>       0.37510801       0.87422463       0.49638178 </v>
    <v>       0.62684787       0.87381229       0.48779956 </v>
    <v>       0.87369826       0.87205279       0.49037490 </v>
    <v>       0.08283402       0.16772511       0.75032415 </v>
    <v>       0.32383292       0.07303222       0.74883778 </v>
    <v>       0.58015629       0.16838666       0.75138343 </v>
    <v>       0.82665663       0.09831979       0.75043719 </v>
    <v>       0.07822743       0.65827639       0.75338255 </v>
    <v>       0.32961726       0.56173082       0.75173598 </v>
    <v>       0.57374473       0.66721822       0.75012283 </v>
    <v>       0.83433094       0.59395888       0.74889417 </v>
    <v>       0.12501908       0.12546564       0.98431516 </v>
    <v>       0.37351882       0.12383075       0.98715262 </v>
    <v>       0.62055674       0.12227967       0.99549088 </v>
    <v>       0.87746656       0.12044308       0.98923303 </v>
    <v>       0.12648118       0.37616925       0.01284738 </v>
    <v>       0.37498092       0.37453436       0.01568484 </v>
    <v>       0.62253344       0.37955692       0.01076697 </v>
    <v>       0.87944326       0.37772033       0.00450912 </v>
    <v>       0.12444708       0.62624667       0.99413336 </v>
    <v>       0.37369937       0.62622924       0.99946474 </v>
    <v>       0.62476188       0.62649993       0.99040551 </v>
    <v>       0.87427571       0.62423565       0.98881164 </v>
    <v>       0.12630063       0.87377076       0.00053526 </v>
    <v>       0.37555292       0.87375333       0.00586664 </v>
    <v>       0.62572429       0.87576435       0.01118836 </v>
    <v>       0.87523812       0.87350007       0.00959449 </v>
    <v>       0.61206424       0.14659119       0.24840129 </v>
    <v>       0.86371111       0.09797146       0.24776207 </v>
    <v>       0.63628889       0.40202854       0.75223793 </v>
    <v>       0.88793576       0.35340881       0.75159871 </v>
   </varray>
  </structure>
  <varray name="forces" >
   <v>      -0.00111612      -0.01801831       0.02573913 </v>
   <v>      -0.01318531      -0.00783040      -0.03595493 </v>
   <v>      -0.00454093      -0.01674385      -0.03892144 </v>
   <v>       0.02059840      -0.00156054       0.01283553 </v>
   <v>       0.02453420      -0.00947063      -0.00082751 </v>
   <v>      -0.00490132       0.02400350      -0.00345809 </v>
   <v>      -0.01022351       0.01155675       0.01891270 </v>
   <v>       0.00161463       0.00197989      -0.03699780 </v>
   <v>       0.00490132      -0.02400350       0.00345809 </v>
   <v>      -0.02453420       0.00947063       0.00082751 </v>
   <v>      -0.00161463      -0.00197989       0.03699780 </v>
   <v>       0.01022351      -0.01155675      -0.01891270 </v>
   <v>       0.01318531       0.00783040       0.03595493 </v>
   <v>       0.00111612       0.01801831      -0.02573913 </v>
   <v>      -0.02059840       0.00156054      -0.01283553 </v>
   <v>       0.00454093       0.01674385       0.03892144 </v>
   <v>      -0.02220724      -0.02082246      -0.02216852 </v>
   <v>       0.03489541       0.03292493      -0.02372427 </v>
   <v>      -0.03459798      -0.00385565      -0.02812452 </v>
   <v>       0.03805912      -0.00021320      -0.03753065 </v>
   <v>       0.03126034      -0.02366852       0.03324635 </v>
   <v>      -0.00422184       0.01808335      -0.04009506 </v>
   <v>       0.00372914       0.02650847      -0.02683139 </v>
   <v>      -0.05092958       0.00480445       0.03160439 </v>
   <v>      -0.03805912       0.00021320       0.03753065 </v>
   <v>       0.03459798       0.00385565       0.02812452 </v>
   <v>      -0.03489541      -0.03292493       0.02372427 </v>
   <v>       0.02220724       0.02082246       0.02216852 </v>
   <v>       0.05092958      -0.00480445      -0.03160439 </v>
   <v>      -0.00372914      -0.02650847       0.02683139 </v>
   <v>       0.00422184      -0.01808335       0.04009506 </v>
   <v>      -0.03126034       0.02366852      -0.03324635 </v>
   <v>       0.05164938       0.02807604       0.05461645 </v>
   <v>       0.02388467      -0.08932430       0.00447724 </v>
   <v>      -0.05164938      -0.02807604      -0.05461645 </v>
   <v>      -0.00000000       0.00000000      -0.00000000 </v>
   <v>      -0.02388467       0.08932430      -0.00447724 </v>
   <v>      -0.00000000       0.00000000      -0.00000000 </v>
   <v>      -0.02044111      -0.09674497      -0.01968856 </v>
   <v>       0.02044111       0.09674497       0.01968856 </v>
   <v>       0.01200638      -0.00977699       0.05186804 </v>
   <v>      -0.00000000       0.00000000      -0.00000000 </v>
   <v>      -0.01532859      -0.02644523       0.02012542 </v>
   <v>      -0.00000000       0.00000000      -0.00000000 </v>
   <v>       0.01532859       0.02644523      -0.02012542 </v>
   <v>       0.00470154      -0.02458292      -0.02047166 </v>
   <v>      -0.01793387       0.01683215      -0.00415362 </v>
   <v>      -0.00470154       0.02458292       0.02047166 </v>
   <v>      -0.00000000       0.00000000      -0.00000000 </v>
   <v>      -0.00000000       0.00000000      -0.00000000 </v>
   <v>      -0.00000000       0.00000000      -0.00000000 </v>
   <v>      -0.00000000       0.00000000      -0.00000000 </v>
   <v>      -0.02547617       0.01731742       0.04624613 </v>
   <v>       0.02547617      -0.01731742      -0.04624613 </v>
   <v>      -0.01200638       0.00977699      -0.05186804 </v>
   <v>       0.01987560      -0.04089434       0.01562044 </v>
   <v>       0.05490097      -0.05099693      -0.06527661 </v>
   <v>      -0.05490097       0.05099693       0.06527661 </v>
   <v>       0.01793387      -0.01683215       0.00415362 </v>
   <v>      -0.01461984       0.00552915      -0.02141426 </v>
   <v>       0.00333777      -0.00173008      -0.06981649 </v>
   <v>      -0.01987560       0.04089434      -0.01562044 </v>
   <v>      -0.00333777       0.00173008       0.06981649 </v>
   <v>       0.01461984      -0.00552915       0.02141426 </v>
   <v>      -0.02443942      -0.01754180      -0.02766107 </v>
   <v>      -0.01083909       0.03262689      -0.00553740 </v>
   <v>       0.00253898      -0.02368365      -0.03715183 </v>
   <v>      -0.01855530       0.03207168       0.05271246 </v>
   <v>       0.02278597      -0.00137776       0.02390333 </v>
   <v>      -0.01376519      -0.01588601      -0.02919762 </v>
   <v>       0.01062461       0.00166142      -0.01722374 </v>
   <v>       0.05493571       0.04935523      -0.00231332 </v>
   <v>      -0.05493571      -0.04935523       0.00231332 </v>
   <v>      -0.01062461      -0.00166142       0.01722374 </v>
   <v>       0.01376519       0.01588601       0.02919762 </v>
   <v>      -0.02278597       0.00137776      -0.02390333 </v>
   <v>       0.01855530      -0.03207168      -0.05271246 </v>
   <v>      -0.00253898       0.02368365       0.03715183 </v>
   <v>       0.01083909      -0.03262689       0.00553740 </v>
   <v>       0.02443942       0.01754180       0.02766107 </v>
   <v>      -0.03749146       0.04773605       0.01104364 </v>
   <v>       0.03914635      -0.01111073       0.02178004 </v>
   <v>       0.02587533      -0.04568669       0.01171923 </v>
   <v>      -0.02244366      -0.00588639      -0.04475622 </v>
   <v>       0.01828567       0.03474822      -0.02444371 </v>
   <v>      -0.01254154      -0.05050295       0.02679746 </v>
   <v>       0.01437241      -0.01585348       0.04347726 </v>
   <v>      -0.02951429       0.00142007      -0.01150959 </v>
   <v>      -0.03914635       0.01111073      -0.02178004 </v>
   <v>       0.03749146      -0.04773605      -0.01104364 </v>
   <v>       0.02244366       0.00588639       0.04475622 </v>
   <v>      -0.02587533       0.04568669      -0.01171923 </v>
   <v>       0.01254154       0.05050295      -0.02679746 </v>
   <v>      -0.01828567      -0.03474822       0.02444371 </v>
   <v>       0.02951429      -0.00142007       0.01150959 </v>
   <v>      -0.01437241       0.01585348      -0.04347726 </v>
   <v>       0.00771376      -0.01097601      -0.01323356 </v>
   <v>       0.05626922       0.00269429      -0.00703168 </v>
   <v>       0.00725256       0.03126434      -0.00989563 </v>
   <v>       0.03172413      -0.02871400      -0.00994739 </v>
   <v>       0.00993515       0.04268240      -0.00572940 </v>
   <v>       0.02069685      -0.00715107       0.01352192 </v>
   <v>       0.04593163       0.00256877      -0.01225758 </v>
   <v>       0.02238865      -0.04163149      -0.00759023 </v>
   <v>       0.00007624      -0.02011104       0.00884162 </v>
   <v>       0.04068281       0.01408864      -0.01964578 </v>
   <v>       0.02329614      -0.03285871      -0.01979383 </v>
   <v>       0.02254817       0.02660731      -0.00726735 </v>
   <v>      -0.04068281      -0.01408864       0.01964578 </v>
[...]
       <r>   -17.5979     0.0000    32.0000 </r>
       <r>   -17.4440     0.0000    32.0000 </r>
       <r>   -17.2900     0.0000    32.0000 </r>
       <r>   -17.1361     0.0000    32.0000 </r>
       <r>   -16.9822     0.0000    32.0000 </r>
       <r>   -16.8282     0.0000    32.0000 </r>
       <r>   -16.6743     0.0000    32.0000 </r>
       <r>   -16.5204     0.0000    32.0000 </r>
       <r>   -16.3664     0.0000    32.0000 </r>
       <r>   -16.2125     0.0000    32.0000 </r>
       <r>   -16.0586     0.0000    32.0000 </r>
       <r>   -15.9046     0.0000    32.0000 </r>
       <r>   -15.7507     0.0000    32.0000 </r>
       <r>   -15.5967     0.0000    32.0000 </r>
       <r>   -15.4428     0.0000    32.0000 </r>
       <r>   -15.2889     0.5879    32.0905 </r>
       <r>   -15.1349    10.7689    33.7482 </r>
       <r>   -14.9810    29.0318    38.2173 </r>
       <r>   -14.8271    46.1262    45.3177 </r>
       <r>   -14.6731    44.3789    52.1492 </r>
       <r>   -14.5192    39.1101    58.1697 </r>
       <r>   -14.3653    49.2371    65.7490 </r>
       <r>   -14.2113    57.8349    74.6519 </r>
       <r>   -14.0574    76.1211    86.3696 </r>
       <r>   -13.9035    80.4061    98.7470 </r>
       <r>   -13.7495    56.6446   107.4666 </r>
       <r>   -13.5956    40.8570   113.7560 </r>
       <r>   -13.4416    13.2357   115.7934 </r>
       <r>   -13.2877     1.3421   116.0000 </r>
       <r>   -13.1338     0.0000   116.0000 </r>
       <r>   -12.9798     0.0000   116.0000 </r>
       <r>   -12.8259     0.0175   116.0027 </r>
       <r>   -12.6720    12.3313   117.9009 </r>
       <r>   -12.5180    68.1164   128.3865 </r>
       <r>   -12.3641   117.1850   146.4254 </r>
       <r>   -12.2102   121.8828   165.1875 </r>
       <r>   -12.0562   105.2634   181.3913 </r>
       <r>   -11.9023    98.4813   196.5511 </r>
       <r>   -11.7484    59.3023   205.6798 </r>
       <r>   -11.5944    35.1679   211.0934 </r>
       <r>   -11.4405     5.8894   212.0000 </r>
       <r>   -11.2865     0.0000   212.0000 </r>
       <r>   -11.1326     0.0000   212.0000 </r>
       <r>   -10.9787     0.0000   212.0000 </r>
       <r>   -10.8247     0.0000   212.0000 </r>
       <r>   -10.6708     0.0000   212.0000 </r>
       <r>   -10.5169     0.0000   212.0000 </r>
       <r>   -10.3629     0.0000   212.0000 </r>
       <r>   -10.2090     0.0000   212.0000 </r>
       <r>   -10.0551     0.0000   212.0000 </r>
       <r>    -9.9011     0.0000   212.0000 </r>
       <r>    -9.7472     0.0000   212.0000 </r>
       <r>    -9.5933     0.0000   212.0000 </r>
       <r>    -9.4393     0.0000   212.0000 </r>
       <r>    -9.2854     0.0000   212.0000 </r>
       <r>    -9.1314     0.0000   212.0000 </r>
       <r>    -8.9775     0.0000   212.0000 </r>
       <r>    -8.8236     0.0000   212.0000 </r>
       <r>    -8.6696     0.0000   212.0000 </r>
       <r>    -8.5157     0.0000   212.0000 </r>
       <r>    -8.3618     0.0000   212.0000 </r>
       <r>    -8.2078     0.0000   212.0000 </r>
       <r>    -8.0539     0.0000   212.0000 </r>
       <r>    -7.9000     0.0000   212.0000 </r>
       <r>    -7.7460     0.0000   212.0000 </r>
       <r>    -7.5921     0.0000   212.0000 </r>
       <r>    -7.4382     0.0000   212.0000 </r>
       <r>    -7.2842     0.0000   212.0000 </r>
       <r>    -7.1303     0.0000   212.0000 </r>
       <r>    -6.9763     0.0000   212.0000 </r>
       <r>    -6.8224     0.0000   212.0000 </r>
       <r>    -6.6685     0.0000   212.0000 </r>
       <r>    -6.5145     0.0000   212.0000 </r>
       <r>    -6.3606     0.0000   212.0000 </r>
       <r>    -6.2067     0.0000   212.0000 </r>
       <r>    -6.0527     0.0000   212.0000 </r>
       <r>    -5.8988     0.0000   212.0000 </r>
       <r>    -5.7449     0.0000   212.0000 </r>
       <r>    -5.5909     0.0000   212.0000 </r>
       <r>    -5.4370     0.0000   212.0000 </r>
       <r>    -5.2831     0.0000   212.0000 </r>
       <r>    -5.1291     0.0000   212.0000 </r>
       <r>    -4.9752     0.0000   212.0000 </r>
       <r>    -4.8213     0.0000   212.0000 </r>
       <r>    -4.6673     0.0000   212.0000 </r>
       <r>    -4.5134     0.0000   212.0000 </r>
       <r>    -4.3594     0.0000   212.0000 </r>
       <r>    -4.2055     0.0000   212.0000 </r>
       <r>    -4.0516     0.0000   212.0000 </r>
       <r>    -3.8976     0.0000   212.0000 </r>
       <r>    -3.7437     0.0000   212.0000 </r>
       <r>    -3.5898     0.0000   212.0000 </r>
       <r>    -3.4358     0.0000   212.0000 </r>
       <r>    -3.2819     0.0000   212.0000 </r>
       <r>    -3.1280     0.0000   212.0000 </r>
       <r>    -2.9740     0.0000   212.0000 </r>
       <r>    -2.8201     0.0000   212.0000 </r>
       <r>    -2.6662     0.9622   212.1481 </r>
       <r>    -2.5122     7.1764   213.2528 </r>
       <r>    -2.3583    10.4557   214.8623 </r>
       <r>    -2.2043    13.1803   216.8912 </r>
       <r>    -2.0504    25.3297   220.7904 </r>
       <r>    -1.8965    22.5280   224.2583 </r>
       <r>    -1.7425    28.4005   228.6301 </r>
       <r>    -1.5886    31.1407   233.4238 </r>
       <r>    -1.4347    35.7065   238.9203 </r>
       <r>    -1.2807    48.0699   246.3199 </r>
       <r>    -1.1268    59.5856   255.4923 </r>
       <r>    -0.9729    81.0114   267.9628 </r>
       <r>    -0.8189    72.7536   279.1622 </r>
       <r>    -0.6650    88.4726   292.7813 </r>
       <r>    -0.5111    94.7458   307.3660 </r>
       <r>    -0.3571    82.5324   320.0707 </r>
       <r>    -0.2032    64.0403   329.9288 </r>
       <r>    -0.0492    52.3201   337.9827 </r>
       <r>     0.1047    64.1336   347.8552 </r>
       <r>     0.2586    62.2625   357.4396 </r>
       <r>     0.4126    62.0848   366.9967 </r>
       <r>     0.5665    56.0772   375.6289 </r>
       <r>     0.7204    57.2854   384.4472 </r>
       <r>     0.8744    60.7233   393.7947 </r>
       <r>     1.0283    63.3837   403.5517 </r>
       <r>     1.1822    65.3965   413.6185 </r>
       <r>     1.3362    76.8845   425.4538 </r>
       <r>     1.4901    73.0926   436.7054 </r>
       <r>     1.6440    70.2734   447.5229 </r>
       <r>     1.7980    53.6794   455.7861 </r>
       <r>     1.9519    23.4265   459.3923 </r>
       <r>     2.1059    14.1805   461.5752 </r>
       <r>     2.2598    15.5734   463.9725 </r>
       <r>     2.4137     0.1788   464.0000 </r>
       <r>     2.5677     0.0000   464.0000 </r>
       <r>     2.7216     0.0000   464.0000 </r>
       <r>     2.8755     0.0000   464.0000 </r>
       <r>     3.0295     0.0000   464.0000 </r>
       <r>     3.1834     0.0000   464.0000 </r>
       <r>     3.3373     0.0000   464.0000 </r>
       <r>     3.4913     0.0000   464.0000 </r>
       <r>     3.6452     0.0000   464.0000 </r>
       <r>     3.7991     0.0000   464.0000 </r>
       <r>     3.9531     0.0000   464.0000 </r>
       <r>     4.1070     0.1230   464.0189 </r>
       <r>     4.2610    22.6441   467.5047 </r>
       <r>     4.4149    60.8969   476.8789 </r>
       <r>     4.5688    74.3224   488.3197 </r>
       <r>     4.7228    74.8686   499.8447 </r>
       <r>     4.8767    69.6795   510.5708 </r>
       <r>     5.0306    69.5842   521.2823 </r>
       <r>     5.1846    77.4590   533.2060 </r>
       <r>     5.3385    80.2898   545.5655 </r>
       <r>     5.4924    91.5906   559.6645 </r>
       <r>     5.6464    94.4513   574.2040 </r>
       <r>     5.8003    85.2712   587.3302 </r>
       <r>     5.9542    51.8740   595.3155 </r>
       <r>     6.1082    40.8061   601.5970 </r>
       <r>     6.2621    26.5714   605.6873 </r>
       <r>     6.4161     2.3388   606.0473 </r>
       <r>     6.5700     6.7744   607.0901 </r>
       <r>     6.7239     7.8844   608.3038 </r>
       <r>     6.8779    11.6299   610.0941 </r>
       <r>     7.0318    12.1161   611.9592 </r>
       <r>     7.1857    13.0981   613.9754 </r>
       <r>     7.3397    17.3722   616.6496 </r>
       <r>     7.4936    11.7768   618.4625 </r>
       <r>     7.6475    19.3353   621.4389 </r>
       <r>     7.8015    17.4072   624.1185 </r>
       <r>     7.9554    18.3711   626.9465 </r>
       <r>     8.1093    17.7232   629.6747 </r>
       <r>     8.2633    29.4801   634.2127 </r>
       <r>     8.4172    18.6243   637.0797 </r>
       <r>     8.5712    23.2849   640.6640 </r>
       <r>     8.7251    17.3589   643.3362 </r>
       <r>     8.8790    26.7852   647.4594 </r>
       <r>     9.0330    27.6139   651.7101 </r>
       <r>     9.1869    38.3115   657.6076 </r>
       <r>     9.3408    45.9744   664.6847 </r>
       <r>     9.4948    50.8146   672.5069 </r>
       <r>     9.6487    39.3151   678.5589 </r>
       <r>     9.8026    42.1068   685.0407 </r>
       <r>     9.9566    51.6302   692.9884 </r>
       <r>    10.1105    54.0580   701.3098 </r>
       <r>    10.2644    59.5892   710.4827 </r>
       <r>    10.4184    52.8922   718.6247 </r>
       <r>    10.5723    43.2013   725.2750 </r>
       <r>    10.7262    45.3946   732.2628 </r>
       <r>    10.8802    46.3939   739.4045 </r>
       <r>    11.0341    54.8973   747.8551 </r>
       <r>    11.1881    58.4500   756.8527 </r>
       <r>    11.3420    55.6849   765.4246 </r>
       <r>    11.4959    16.7219   767.9987 </r>
       <r>    11.6499     0.0085   768.0000 </r>
       <r>    11.8038     0.0000   768.0000 </r>
       <r>    11.9577     0.0000   768.0000 </r>
       <r>    12.1117     0.0000   768.0000 </r>
       <r>    12.2656     0.0000   768.0000 </r>
       <r>    12.4195     0.0000   768.0000 </r>
       <r>    12.5735     0.0000   768.0000 </r>
       <r>    12.7274     0.0000   768.0000 </r>
       <r>    12.8813     0.0000   768.0000 </r>
       <r>    13.0353     0.0000   768.0000 </r>
       <r>    13.1892     0.0000   768.0000 </r>
       <r>    13.3432     0.0000   768.0000 </r>
       <r>    13.4971     0.0000   768.0000 </r>
      </set>
     </set>
    </array>
   </total>
  </dos>
 </calculation>
 <structure name="finalpos" >
  <crystal>
   <varray name="basis" >
    <v>      11.24251231       0.00518396      -0.01092967 </v>
    <v>       0.00577067      11.42507230       0.01985776 </v>
    <v>      -0.01515820       0.02596662      15.64517360 </v>
   </varray>
   <i name="volume">   2009.55987988 </i>
   <varray name="rec_basis" >
    <v>       0.08894819      -0.00004508       0.00008625 </v>
    <v>      -0.00004050       0.08752707      -0.00014531 </v>
    <v>       0.00006219      -0.00011113       0.06391772 </v>
   </varray>
  </crystal>
  <varray name="positions" >
   <v>       0.99764216       0.23824344       0.11232290 </v>
   <v>       0.98990207       0.26191718       0.61778891 </v>
   <v>       0.00211158       0.74797658       0.11149954 </v>
   <v>       0.00340276       0.74822476       0.61570470 </v>
   <v>       0.50860215       0.23937657       0.11894696 </v>
   <v>       0.50545294       0.26107678       0.60928711 </v>
   <v>       0.50520363       0.74973672       0.11720180 </v>
   <v>       0.49529206       0.75161731       0.60983867 </v>
   <v>       0.99454706       0.23892322       0.39071289 </v>
   <v>       0.99139785       0.26062343       0.88105304 </v>
   <v>       0.00470794       0.74838269       0.39016133 </v>
   <v>       0.99479637       0.75026328       0.88279820 </v>
   <v>       0.51009793       0.23808282       0.38221109 </v>
   <v>       0.50235784       0.26175656       0.88767710 </v>
   <v>       0.49659724       0.75177524       0.38429530 </v>
   <v>       0.49788842       0.75202342       0.88850046 </v>
   <v>       0.24715614       0.00511528       0.10992797 </v>
   <v>       0.25101580       0.98581494       0.61217778 </v>
   <v>       0.25030545       0.51081382       0.11395233 </v>
   <v>       0.25576235       0.49820983       0.60882921 </v>
   <v>       0.75572334       0.01104994       0.11951151 </v>
   <v>       0.74315589       0.00493858       0.61255523 </v>
   <v>       0.75481803       0.49494918       0.11407407 </v>
   <v>       0.74105268       0.48804774       0.61636387 </v>
   <v>       0.24423765       0.00179017       0.39117079 </v>
   <v>       0.24969455       0.98918618       0.88604767 </v>
   <v>       0.24898420       0.51418506       0.38782222 </v>
   <v>       0.25284386       0.49488472       0.89007203 </v>
   <v>       0.75894732       0.01195226       0.38363613 </v>
   <v>       0.74518197       0.00505082       0.88592593 </v>
   <v>       0.75684411       0.49506142       0.38744477 </v>
   <v>       0.74427666       0.48895006       0.88048849 </v>
   <v>       0.76188020       0.24015385       0.24980036 </v>
   <v>       0.00021477       0.99818741       0.99735288 </v>
   <v>       0.73811980       0.25984615       0.75019964 </v>
   <v>       0.25000000       0.25000000       0.50000000 </v>
   <v>       0.49978523       0.50181259       0.00264712 </v>
   <v>       0.75000000       0.75000000       0.50000000 </v>
   <v>       0.49923451       0.99931400       0.00228993 </v>
   <v>       0.00076549       0.50068600       0.99771007 </v>
   <v>       0.23937234       0.70268979       0.75153451 </v>
   <v>       0.25000000       0.75000000       0.50000000 </v>
   <v>       0.00103512       0.50066848       0.50657669 </v>
   <v>       0.75000000       0.25000000       0.50000000 </v>
   <v>       0.49896488       0.99933152       0.49342331 </v>
   <v>       0.49992972       0.50194329       0.49598748 </v>
   <v>       0.50009803       0.51464325       0.74797133 </v>
   <v>       0.00007028       0.99805671       0.50401252 </v>
   <v>       0.25000000       0.25000000       0.00000000 </v>
   <v>       0.75000000       0.25000000       0.00000000 </v>
   <v>       0.75000000       0.75000000       0.00000000 </v>
   <v>       0.25000000       0.75000000       0.00000000 </v>
   <v>       0.25848720       0.28197986       0.25207695 </v>
   <v>       0.24151280       0.21802014       0.74792305 </v>
   <v>       0.26062766       0.79731021       0.24846549 </v>
   <v>       0.52279562       0.98966848       0.25035823 </v>
   <v>       0.76906097       0.77410955       0.25221163 </v>
   <v>       0.73093903       0.72589045       0.74778837 </v>
   <v>       0.99990197       0.98535675       0.25202867 </v>
   <v>       0.98095734       0.03470742       0.75048066 </v>
   <v>       0.01165499       0.46832356       0.24821814 </v>
   <v>       0.97720438       0.51033152       0.74964177 </v>
   <v>       0.48834501       0.03167644       0.75178186 </v>
   <v>       0.51904266       0.46529258       0.24951934 </v>
   <v>       0.01022072       0.01092709       0.12208138 </v>
   <v>       0.00337498       0.96413410       0.64495431 </v>
   <v>       0.99424050       0.52525930       0.13260908 </v>
   <v>       0.02344855       0.48152837       0.63430583 </v>
   <v>       0.48466168       0.01663925       0.12896296 </v>
   <v>       0.51360582       0.96543453       0.64513662 </v>
   <v>       0.49929576       0.52894054       0.13799667 </v>
   <v>       0.49052117       0.48645529       0.62551171 </v>
   <v>       0.00947883       0.01354471       0.37448829 </v>
   <v>       0.00070424       0.97105946       0.86200333 </v>
   <v>       0.98639418       0.53456547       0.35486338 </v>
   <v>       0.01533832       0.48336075       0.87103704 </v>
   <v>       0.47655145       0.01847163       0.36569417 </v>
   <v>       0.50575950       0.97474070       0.86739092 </v>
   <v>       0.49662502       0.53586590       0.35504569 </v>
   <v>       0.48977928       0.48907291       0.87791862 </v>
   <v>       0.23625640       0.22097545       0.36425299 </v>
   <v>       0.26649785       0.28156204       0.85784621 </v>
   <v>       0.23739220       0.73335968       0.35815977 </v>
   <v>       0.26536815       0.76978287       0.86099513 </v>
   <v>       0.76118963       0.24122436       0.37397510 </v>
   <v>       0.74095207       0.25755189       0.87638132 </v>
   <v>       0.75152865       0.71928324       0.36595601 </v>
   <v>       0.75105765       0.78753337       0.85870731 </v>
   <v>       0.23350215       0.21843796       0.14215379 </v>
   <v>       0.26374360       0.27902455       0.63574701 </v>
   <v>       0.23463185       0.73021713       0.13900487 </v>
   <v>       0.26260780       0.76664032       0.64184023 </v>
   <v>       0.75904793       0.24244811       0.12361868 </v>
   <v>       0.73881037       0.25877564       0.62602490 </v>
   <v>       0.74894235       0.71246663       0.14129269 </v>
   <v>       0.74847135       0.78071676       0.63404399 </v>
   <v>       0.17834345       0.42936216       0.25065798 </v>
   <v>       0.41899592       0.33031154       0.24958817 </v>
   <v>       0.67545401       0.40274278       0.24966240 </v>
   <v>       0.92365023       0.33034573       0.24841367 </v>
   <v>       0.17270204       0.94094695       0.24872653 </v>
   <v>       0.42349609       0.83906713       0.24695128 </v>
   <v>       0.66880830       0.90475776       0.25059518 </v>
   <v>       0.92977003       0.83019804       0.24938417 </v>
   <v>       0.12831727       0.12671366       0.51657241 </v>
   <v>       0.37426980       0.12763605       0.51109510 </v>
   <v>       0.62325467       0.12015539       0.50106229 </v>
   <v>       0.87854099       0.12318343       0.51160331 </v>
   <v>       0.12573020       0.37236395       0.48890490 </v>
   <v>       0.37168273       0.37328634       0.48342759 </v>
   <v>       0.62145901       0.37681657       0.48839669 </v>
   <v>       0.87674533       0.37984461       0.49893771 </v>
   <v>       0.12645208       0.62417633       0.50430578 </v>
   <v>       0.37525437       0.62825550       0.49926242 </v>
   <v>       0.62809171       0.62646487       0.50814280 </v>
   <v>       0.87490166       0.62789935       0.51340454 </v>
   <v>       0.12474563       0.87174450       0.50073758 </v>
   <v>       0.37354792       0.87582367       0.49569422 </v>
   <v>       0.62509834       0.87210065       0.48659546 </v>
   <v>       0.87190829       0.87353513       0.49185720 </v>
   <v>       0.08100408       0.16968846       0.75041183 </v>
   <v>       0.32165655       0.07063784       0.74934202 </v>
   <v>       0.57634977       0.16965427       0.75158633 </v>
   <v>       0.82454599       0.09725722       0.75033760 </v>
   <v>       0.07650391       0.66093287       0.75304872 </v>
   <v>       0.32729796       0.55905305       0.75127347 </v>
   <v>       0.57022997       0.66980196       0.75061583 </v>
   <v>       0.83119170       0.59524224       0.74940482 </v>
   <v>       0.12667175       0.12346432       0.98428908 </v>
   <v>       0.37544508       0.12601143       0.98935929 </v>
   <v>       0.62304543       0.12038871       0.99809123 </v>
   <v>       0.87921615       0.12237543       0.98979016 </v>
   <v>       0.12455492       0.37398857       0.01064071 </v>
   <v>       0.37332825       0.37653568       0.01571092 </v>
   <v>       0.62078385       0.37762457       0.01020984 </v>
   <v>       0.87695457       0.37961129       0.00190877 </v>
   <v>       0.12654174       0.62419971       0.99339743 </v>
   <v>       0.37583140       0.62812613       0.00044835 </v>
   <v>       0.62689112       0.62460071       0.99144298 </v>
   <v>       0.87625686       0.62613001       0.98801023 </v>
   <v>       0.12416860       0.87187387      -0.00044835 </v>
   <v>       0.37345826       0.87580029       0.00660257 </v>
   <v>       0.62374314       0.87386999       0.01198977 </v>
   <v>       0.87310888       0.87539929       0.00855702 </v>
   <v>       0.61632383       0.14484277       0.24843886 </v>
   <v>       0.86714509       0.09871629       0.24711845 </v>
   <v>       0.63285491       0.40128371       0.75288155 </v>
   <v>       0.88367617       0.35515723       0.75156114 </v>
  </varray>
 </structure>
</modeling>
