       N       E                     dE             d eps       ncg     rms          rms(c)
DAV:   1    -0.105469761052E+04   -0.10547E+04   -0.18813E-01  3336   0.100E+00    0.663E-02
RMM:   2    -0.105469760897E+04    0.15581E-05   -0.10334E-04  1826   0.183E-02    0.934E-02
RMM:   3    -0.105469761012E+04   -0.11548E-05   -0.28102E-05  1770   0.106E-02    0.180E-02
RMM:   4    -0.105469761363E+04   -0.35134E-05   -0.14850E-05  1654   0.481E-03    0.134E-02
RMM:   5    -0.105469761564E+04   -0.20022E-05   -0.69255E-06  1598   0.420E-03    0.132E-02
RMM:   6    -0.105469761570E+04   -0.59561E-07   -0.45148E-06  1155   0.305E-03    0.272E-03
RMM:   7    -0.105469761584E+04   -0.14562E-06   -0.25843E-06   846   0.263E-03    0.148E-03
RMM:   8    -0.105469761595E+04   -0.11252E-06   -0.17514E-06   711   0.223E-03
   1 F= -.10546976E+04 E0= -.10546976E+04  d E =-.105470E+04  mag=    80.0000
       N       E                     dE             d eps       ncg     rms          rms(c)
DAV:   1    -0.105470130837E+04   -0.36925E-02   -0.10325E+00  3184   0.124E+00    0.787E-01
RMM:   2    -0.105470099552E+04    0.31285E-03   -0.38977E-02  3140   0.265E-01    0.536E-01
RMM:   3    -0.105470059896E+04    0.39656E-03   -0.30160E-03  3242   0.938E-02    0.329E-01
RMM:   4    -0.105470032607E+04    0.27289E-03   -0.91610E-04  3051   0.359E-02    0.207E-01
RMM:   5    -0.105470028251E+04    0.43554E-04   -0.39058E-04  2270   0.269E-02    0.963E-02
RMM:   6    -0.105470030233E+04   -0.19818E-04   -0.10219E-04  1837   0.173E-02    0.120E-01
RMM:   7    -0.105470031726E+04   -0.14933E-04   -0.54025E-05  1804   0.100E-02    0.301E-02
RMM:   8    -0.105470033505E+04   -0.17786E-04   -0.32827E-05  1769   0.938E-03
   2 F= -.10547003E+04 E0= -.10547003E+04  d E =-.271910E-02  mag=    80.0000
       N       E                     dE             d eps       ncg     rms          rms(c)
DAV:   1    -0.105470036544E+04   -0.48176E-04   -0.17834E-02  3304   0.166E-01    0.101E-01
RMM:   2    -0.105470036845E+04   -0.30105E-05   -0.66228E-04  2830   0.336E-02    0.656E-02
RMM:   3    -0.105470036310E+04    0.53448E-05   -0.41833E-05  1765   0.128E-02    0.451E-02
RMM:   4    -0.105470036238E+04    0.72409E-06   -0.18992E-05  1730   0.591E-03    0.271E-02
RMM:   5    -0.105470036510E+04   -0.27205E-05   -0.81243E-06  1635   0.498E-03    0.225E-02
RMM:   6    -0.105470036641E+04   -0.13051E-05   -0.44842E-06  1471   0.346E-03    0.147E-02
RMM:   7    -0.105470036799E+04   -0.15823E-05   -0.14575E-06   995   0.253E-03    0.513E-03
RMM:   8    -0.105470036919E+04   -0.12057E-05   -0.75119E-07   737   0.211E-03
   3 F= -.10547004E+04 E0= -.10547004E+04  d E =-.275324E-02  mag=    80.0000
       N       E                     dE             d eps       ncg     rms          rms(c)
DAV:   1    -0.105470042630E+04   -0.58314E-04   -0.86666E-01  3104   0.110E+00    0.332E-01
RMM:   2    -0.105470278507E+04   -0.23588E-02   -0.22839E-02  3168   0.206E-01    0.216E-01
RMM:   3    -0.105470286592E+04   -0.80851E-04   -0.12688E-03  3031   0.596E-02    0.141E-01
RMM:   4    -0.105470278716E+04    0.78764E-04   -0.18042E-04  1935   0.183E-02    0.832E-02
RMM:   5    -0.105470275384E+04    0.33319E-04   -0.14273E-04  1816   0.145E-02    0.201E-02
RMM:   6    -0.105470275738E+04   -0.35460E-05   -0.26890E-05  1781   0.900E-03    0.166E-02
RMM:   7    -0.105470275855E+04   -0.11673E-05   -0.14909E-05  1671   0.460E-03    0.964E-03
RMM:   8    -0.105470275841E+04    0.14249E-06   -0.81296E-06  1545   0.471E-03
   4 F= -.10547028E+04 E0= -.10547028E+04  d E =-.238922E-02  mag=    80.0000
