<?xml version="1.0" encoding="ISO-8859-1"?>
<modeling>
 <generator>
  <i name="program" type="string">vasp </i>
  <i name="version" type="string">5.4.1  </i>
  <i name="subversion" type="string">05Feb16 (build Jan 25 2017 20:16:33) complex                          parallel </i>
  <i name="platform" type="string">BWXE6 </i>
  <i name="date" type="string">2019 08 11 </i>
  <i name="time" type="string">11:57:25 </i>
 </generator>
 <incar>
  <i type="string" name="SYSTEM"> STF</i>
  <i type="string" name="PREC">normal</i>
  <i type="string" name="ALGO"> Fast</i>
  <i type="int" name="ISPIN">     2</i>
  <i type="int" name="NELM">    40</i>
  <i type="int" name="NELMIN">     8</i>
  <i type="int" name="IBRION">     2</i>
  <i name="EDIFF">      0.00010000</i>
  <i name="EDIFFG">     -0.03000000</i>
  <i type="int" name="NSW">    30</i>
  <i type="int" name="ISIF">     3</i>
  <i name="ENCUT">    520.00000000</i>
  <i type="int" name="NBANDS">   768</i>
  <v name="MAGMOM">      0.60000000      0.60000000      0.60000000      0.60000000      0.60000000      0.60000000      0.60000000      0.60000000      0.60000000      0.60000000      0.60000000      0.60000000      0.60000000      0.60000000      0.60000000      0.60000000      0.60000000      0.60000000      0.60000000      0.60000000
      0.60000000      0.60000000      0.60000000      0.60000000      0.60000000      0.60000000      0.60000000      0.60000000      0.60000000      0.60000000      0.60000000      0.60000000      0.60000000      0.60000000      0.60000000      0.60000000      0.60000000      0.60000000      0.60000000      0.60000000
      0.60000000      0.60000000      0.60000000      0.60000000      0.60000000      0.60000000      0.60000000      0.60000000      5.00000000      5.00000000      5.00000000      5.00000000      5.00000000      5.00000000      5.00000000      5.00000000      5.00000000      5.00000000      5.00000000      5.00000000
      5.00000000      5.00000000      5.00000000      5.00000000      0.60000000      0.60000000      0.60000000      0.60000000      0.60000000      0.60000000      0.60000000      0.60000000      0.60000000      0.60000000      0.60000000      0.60000000      0.60000000      0.60000000      0.60000000      0.60000000
      0.60000000      0.60000000      0.60000000      0.60000000      0.60000000      0.60000000      0.60000000      0.60000000      0.60000000      0.60000000      0.60000000      0.60000000      0.60000000      0.60000000      0.60000000      0.60000000      0.60000000      0.60000000      0.60000000      0.60000000
      0.60000000      0.60000000      0.60000000      0.60000000      0.60000000      0.60000000      0.60000000      0.60000000      0.60000000      0.60000000      0.60000000      0.60000000      0.60000000      0.60000000      0.60000000      0.60000000      0.60000000      0.60000000      0.60000000      0.60000000
      0.60000000      0.60000000      0.60000000      0.60000000      0.60000000      0.60000000      0.60000000      0.60000000      0.60000000      0.60000000      0.60000000      0.60000000      0.60000000      0.60000000      0.60000000      0.60000000      0.60000000      0.60000000      0.60000000      0.60000000
      0.60000000      0.60000000      0.60000000      0.60000000      0.60000000      0.60000000      0.60000000      0.60000000      0.60000000      0.60000000      0.60000000      0.60000000</v>
  <i type="string" name="LREAL"> Auto</i>
  <i type="int" name="ISMEAR">     0</i>
  <i name="SIGMA">      0.05000000</i>
  <i type="int" name="LMAXMIX">     4</i>
  <v type="int" name="KPOINT_BSE">    -1     0     0     0</v>
  <i type="int" name="NELM">    40</i>
  <i type="logical" name="LDAU"> T  </i>
  <v type="int" name="LDAUTYPE">     2</v>
  <v type="int" name="LDAUL">     0     2     2     0</v>
  <v name="LDAUU">      0.00000000      3.00000000      5.00000000      0.00000000</v>
  <v name="LDAUJ">      0.00000000      0.00000000      0.00000000      0.00000000</v>
  <i type="int" name="LDAUPRINT">     1</i>
 </incar>
 <kpoints>
  <generation param="Monkhorst-Pack">
   <v type="int" name="divisions">       2        2        2 </v>
   <v name="usershift">      0.00000000       0.00000000       0.00000000 </v>
   <v name="genvec1">      0.50000000       0.00000000       0.00000000 </v>
   <v name="genvec2">      0.00000000       0.50000000       0.00000000 </v>
   <v name="genvec3">      0.00000000       0.00000000       0.50000000 </v>
   <v name="shift">      0.50000000       0.50000000       0.50000000 </v>
  </generation>
  <varray name="kpointlist" >
   <v>       0.25000000       0.25000000       0.25000000 </v>
  </varray>
  <varray name="weights" >
   <v>       1.00000000 </v>
  </varray>
 </kpoints>
 <parameters>
  <separator name="general" >
   <i type="string" name="SYSTEM">STF</i>
   <i type="logical" name="LCOMPAT"> F  </i>
  </separator>
  <separator name="electronic" >
   <i type="string" name="PREC">normal</i>
   <i name="ENMAX">    520.00000000</i>
   <i name="ENAUG">    605.39200000</i>
   <i name="EDIFF">      0.00010000</i>
   <i type="int" name="IALGO">    68</i>
   <i type="int" name="IWAVPR">    11</i>
   <i type="int" name="NBANDS">   768</i>
   <i name="NELECT">   1040.00000000</i>
   <i type="int" name="TURBO">     0</i>
   <i type="int" name="IRESTART">     0</i>
   <i type="int" name="NREBOOT">     0</i>
   <i type="int" name="NMIN">     0</i>
   <i name="EREF">      0.00000000</i>
   <separator name="electronic smearing" >
    <i type="int" name="ISMEAR">     0</i>
    <i name="SIGMA">      0.05000000</i>
    <i name="KSPACING">      0.50000000</i>
    <i type="logical" name="KGAMMA"> T  </i>
   </separator>
   <separator name="electronic projectors" >
    <i type="logical" name="LREAL"> T  </i>
    <v name="ROPT">     -0.00050000     -0.00050000     -0.00050000     -0.00050000</v>
    <i type="int" name="LMAXPAW">  -100</i>
    <i type="int" name="LMAXMIX">     4</i>
    <i type="logical" name="NLSPLINE"> F  </i>
   </separator>
   <separator name="electronic startup" >
    <i type="int" name="ISTART">     1</i>
    <i type="int" name="ICHARG">     0</i>
    <i type="int" name="INIWAV">     1</i>
   </separator>
   <separator name="electronic spin" >
    <i type="int" name="ISPIN">     2</i>
    <i type="logical" name="LNONCOLLINEAR"> F  </i>
    <v name="MAGMOM">      0.60000000      0.60000000      0.60000000      0.60000000      0.60000000      0.60000000      0.60000000      0.60000000      0.60000000      0.60000000      0.60000000      0.60000000      0.60000000      0.60000000      0.60000000      0.60000000      0.60000000      0.60000000      0.60000000      0.60000000
      0.60000000      0.60000000      0.60000000      0.60000000      0.60000000      0.60000000      0.60000000      0.60000000      0.60000000      0.60000000      0.60000000      0.60000000      0.60000000      0.60000000      0.60000000      0.60000000      0.60000000      0.60000000      0.60000000      0.60000000
      0.60000000      0.60000000      0.60000000      0.60000000      0.60000000      0.60000000      0.60000000      0.60000000      5.00000000      5.00000000      5.00000000      5.00000000      5.00000000      5.00000000      5.00000000      5.00000000      5.00000000      5.00000000      5.00000000      5.00000000
      5.00000000      5.00000000      5.00000000      5.00000000      0.60000000      0.60000000      0.60000000      0.60000000      0.60000000      0.60000000      0.60000000      0.60000000      0.60000000      0.60000000      0.60000000      0.60000000      0.60000000      0.60000000      0.60000000      0.60000000
      0.60000000      0.60000000      0.60000000      0.60000000      0.60000000      0.60000000      0.60000000      0.60000000      0.60000000      0.60000000      0.60000000      0.60000000      0.60000000      0.60000000      0.60000000      0.60000000      0.60000000      0.60000000      0.60000000      0.60000000
      0.60000000      0.60000000      0.60000000      0.60000000      0.60000000      0.60000000      0.60000000      0.60000000      0.60000000      0.60000000      0.60000000      0.60000000      0.60000000      0.60000000      0.60000000      0.60000000      0.60000000      0.60000000      0.60000000      0.60000000
      0.60000000      0.60000000      0.60000000      0.60000000      0.60000000      0.60000000      0.60000000      0.60000000      0.60000000      0.60000000      0.60000000      0.60000000      0.60000000      0.60000000      0.60000000      0.60000000      0.60000000      0.60000000      0.60000000      0.60000000
      0.60000000      0.60000000      0.60000000      0.60000000      0.60000000      0.60000000      0.60000000      0.60000000      0.60000000      0.60000000      0.60000000      0.60000000</v>
    <i name="NUPDOWN">     -1.00000000</i>
    <i type="logical" name="LSORBIT"> F  </i>
    <v name="SAXIS">      0.00000000      0.00000000      1.00000000</v>
    <i type="logical" name="LSPIRAL"> F  </i>
    <v name="QSPIRAL">      0.00000000      0.00000000      0.00000000</v>
    <i type="logical" name="LZEROZ"> F  </i>
   </separator>
   <separator name="electronic exchange-correlation" >
    <i type="logical" name="LASPH"> F  </i>
    <i type="logical" name="LMETAGGA"> F  </i>
   </separator>
   <separator name="electronic convergence" >
    <i type="int" name="NELM">    40</i>
    <i type="int" name="NELMDL">     0</i>
    <i type="int" name="NELMIN">     8</i>
    <i name="ENINI">    520.00000000</i>
    <separator name="electronic convergence detail" >
     <i type="logical" name="LDIAG"> T  </i>
     <i type="logical" name="LSUBROT"> F  </i>
     <i name="WEIMIN">      0.00100000</i>
     <i name="EBREAK">      0.00000003</i>
     <i name="DEPER">      0.30000000</i>
     <i type="int" name="NRMM">     4</i>
     <i name="TIME">      0.40000000</i>
    </separator>
   </separator>
   <separator name="electronic mixer" >
    <i name="AMIX">      0.40000000</i>
    <i name="BMIX">      1.00000000</i>
    <i name="AMIN">      0.10000000</i>
    <i name="AMIX_MAG">      1.60000000</i>
    <i name="BMIX_MAG">      1.00000000</i>
    <separator name="electronic mixer details" >
     <i type="int" name="IMIX">     4</i>
     <i type="logical" name="MIXFIRST"> F  </i>
     <i type="int" name="MAXMIX">   -45</i>
     <i name="WC">    100.00000000</i>
     <i type="int" name="INIMIX">     1</i>
     <i type="int" name="MIXPRE">     1</i>
     <i type="int" name="MREMOVE">     5</i>
    </separator>
   </separator>
   <separator name="electronic dipolcorrection" >
    <i type="logical" name="LDIPOL"> F  </i>
    <i type="logical" name="LMONO"> F  </i>
    <i type="int" name="IDIPOL">     0</i>
    <i name="EPSILON">      1.00000000</i>
    <v name="DIPOL">   -100.00000000   -100.00000000   -100.00000000</v>
    <i name="EFIELD">      0.00000000</i>
   </separator>
  </separator>
  <separator name="grids" >
   <i type="int" name="NGX">    64</i>
   <i type="int" name="NGY">    64</i>
   <i type="int" name="NGZ">    90</i>
   <i type="int" name="NGXF">   128</i>
   <i type="int" name="NGYF">   128</i>
   <i type="int" name="NGZF">   180</i>
   <i type="logical" name="ADDGRID"> F  </i>
  </separator>
  <separator name="ionic" >
   <i type="int" name="NSW">    30</i>
   <i type="int" name="IBRION">     2</i>
   <i type="int" name="ISIF">     3</i>
   <i name="PSTRESS">      0.00000000</i>
   <i name="EDIFFG">     -0.03000000</i>
   <i type="int" name="NFREE">     1</i>
   <i name="POTIM">      0.50000000</i>
   <i name="SMASS">     -3.00000000</i>
   <i name="SCALEE">      1.00000000</i>
  </separator>
  <separator name="ionic md" >
   <i name="TEBEG">      0.00010000</i>
   <i name="TEEND">      0.00010000</i>
   <i type="int" name="NBLOCK">     1</i>
   <i type="int" name="KBLOCK">    30</i>
   <i type="int" name="NPACO">   256</i>
   <i name="APACO">     16.00000000</i>
  </separator>
  <separator name="symmetry" >
   <i type="int" name="ISYM">     2</i>
   <i name="SYMPREC">      0.00001000</i>
  </separator>
  <separator name="dos" >
   <i type="logical" name="LORBIT"> F  </i>
   <v name="RWIGS">     -1.00000000     -1.00000000     -1.00000000     -1.00000000</v>
   <i type="int" name="NEDOS">   301</i>
   <i name="EMIN">     10.00000000</i>
   <i name="EMAX">    -10.00000000</i>
   <i name="EFERMI">      0.00000000</i>
  </separator>
  <separator name="writing" >
   <i type="int" name="NWRITE">     2</i>
   <i type="logical" name="LWAVE"> T  </i>
   <i type="logical" name="LCHARG"> T  </i>
   <i type="logical" name="LPARD"> F  </i>
   <i type="logical" name="LVTOT"> F  </i>
   <i type="logical" name="LVHAR"> F  </i>
   <i type="logical" name="LELF"> F  </i>
   <i type="logical" name="LOPTICS"> F  </i>
   <v name="STM">      0.00000000      0.00000000      0.00000000      0.00000000      0.00000000      0.00000000      0.00000000</v>
  </separator>
  <separator name="performance" >
   <i type="int" name="NPAR">     2</i>
   <i type="int" name="NSIM">     4</i>
   <i type="int" name="NBLK">    -1</i>
   <i type="logical" name="LPLANE"> T  </i>
   <i type="logical" name="LSCALAPACK"> T  </i>
   <i type="logical" name="LSCAAWARE"> F  </i>
   <i type="logical" name="LSCALU"> F  </i>
   <i type="logical" name="LASYNC"> F  </i>
   <i type="logical" name="LORBITALREAL"> F  </i>
  </separator>
  <separator name="miscellaneous" >
   <i type="int" name="IDIOT">     3</i>
   <i type="logical" name="LMUSIC"> F  </i>
   <v name="POMASS">     87.62000000     47.88000000     55.84700000     16.00000000</v>
   <v name="DARWINR">      0.00000000      0.00000000      0.00000000      0.00000000</v>
   <v name="DARWINV">      1.00000000      1.00000000      1.00000000      1.00000000</v>
   <i type="logical" name="LCORR"> T  </i>
  </separator>
  <i type="logical" name="GGA_COMPAT"> T  </i>
  <i type="logical" name="LBERRY"> F  </i>
  <i type="int" name="ICORELEVEL">     0</i>
  <i type="logical" name="LDAU"> T  </i>
  <v type="int" name="LDAUTYPE">     2</v>
  <v type="int" name="LDAUL">     0</v>
  <v name="LDAUU">      0.00000000</v>
  <v name="LDAUJ">      0.00000000</v>
  <i type="int" name="LDAUPRINT">     1</i>
  <i type="int" name="I_CONSTRAINED_M">     0</i>
  <separator name="electronic exchange-correlation" >
   <i type="string" name="GGA">--</i>
   <i type="int" name="VOSKOWN">     0</i>
   <i type="logical" name="LHFCALC"> F  </i>
   <i type="string" name="PRECFOCK"></i>
   <i type="logical" name="LSYMGRAD"> F  </i>
   <i type="logical" name="LHFONE"> F  </i>
   <i type="logical" name="LRHFCALC"> F  </i>
   <i type="logical" name="LTHOMAS"> F  </i>
   <i type="logical" name="LMODELHF"> F  </i>
   <i name="ENCUT4O">     -1.00000000</i>
   <i type="int" name="EXXOEP">     0</i>
   <i type="int" name="FOURORBIT">     0</i>
   <i name="AEXX">      0.00000000</i>
   <i name="HFALPHA">      0.00000000</i>
   <i name="MCALPHA">      0.00000000</i>
   <i name="ALDAX">      1.00000000</i>
   <i name="AGGAX">      1.00000000</i>
   <i name="ALDAC">      1.00000000</i>
   <i name="AGGAC">      1.00000000</i>
   <i type="int" name="NKREDX">     1</i>
   <i type="int" name="NKREDY">     1</i>
   <i type="int" name="NKREDZ">     1</i>
   <i type="logical" name="SHIFTRED"> F  </i>
   <i type="logical" name="ODDONLY"> F  </i>
   <i type="logical" name="EVENONLY"> F  </i>
   <i type="int" name="LMAXFOCK">     0</i>
   <i type="int" name="NMAXFOCKAE">     0</i>
   <i type="logical" name="LFOCKAEDFT"> F  </i>
   <i name="HFSCREEN">      0.00000000</i>
   <i name="HFSCREENC">      0.00000000</i>
   <i type="int" name="NBANDSGWLOW">     0</i>
  </separator>
  <separator name="vdW DFT" >
   <i type="logical" name="LUSE_VDW"> F  </i>
   <i name="Zab_VDW">     -0.84910000</i>
   <i name="PARAM1">      0.12340000</i>
   <i name="PARAM2">      1.00000000</i>
   <i name="PARAM3">      0.00000000</i>
  </separator>
  <separator name="model GW" >
   <i type="int" name="MODEL_GW">     0</i>
   <i name="MODEL_EPS0">      7.85890483</i>
   <i name="MODEL_ALPHA">      1.00000000</i>
  </separator>
  <separator name="linear response parameters" >
   <i type="logical" name="LEPSILON"> F  </i>
   <i type="logical" name="LRPA"> F  </i>
   <i type="logical" name="LNABLA"> F  </i>
   <i type="logical" name="LVEL"> F  </i>
   <i type="int" name="KINTER">     0</i>
   <i name="CSHIFT">      0.10000000</i>
   <i name="OMEGAMAX">     -1.00000000</i>
   <i name="DEG_THRESHOLD">      0.00200000</i>
  </separator>
  <separator name="orbital magnetization" >
   <i type="logical" name="NUCIND"> F  </i>
   <v name="MAGPOS">      0.00000000      0.00000000      0.00000000</v>
   <i type="logical" name="LNICSALL"> T  </i>
   <i type="logical" name="ORBITALMAG"> F  </i>
   <i type="logical" name="LMAGBLOCH"> F  </i>
   <i type="logical" name="LCHIMAG"> F  </i>
   <i type="logical" name="LGAUGE"> T  </i>
   <i type="int" name="MAGATOM">     0</i>
   <v name="MAGDIPOL">      0.00000000      0.00000000      0.00000000</v>
   <v name="AVECCONST">      0.00000000      0.00000000      0.00000000</v>
  </separator>
  <separator name="response functions" >
   <i type="logical" name="LADDER"> F  </i>
   <i type="logical" name="LFXC"> F  </i>
   <i type="logical" name="LHARTREE"> T  </i>
   <i type="int" name="IBSE">     0</i>
   <v type="int" name="KPOINT">    -1     0     0     0</v>
   <i type="logical" name="LTCTE"> F  </i>
   <i type="logical" name="LTETE"> F  </i>
   <i type="logical" name="LTRIPLET"> F  </i>
   <i type="logical" name="LFXCEPS"> F  </i>
   <i type="logical" name="LFXHEG"> F  </i>
   <i type="int" name="NATURALO">     0</i>
   <i type="logical" name="L2ORDER"> F  </i>
   <i type="logical" name="LUSEW"> F  </i>
   <i name="ENCUTGW">     -2.00000000</i>
   <i name="ENCUTGWSOFT">     -2.00000000</i>
   <i name="ENCUTLF">     -1.00000000</i>
   <i type="int" name="LMAXMP2">    -1</i>
   <i name="SCISSOR">      0.00000000</i>
   <i type="int" name="NOMEGA">     0</i>
   <i type="int" name="NOMEGAR">     0</i>
   <i type="int" name="NBANDSGW">    -1</i>
   <i type="int" name="NBANDSO">    -1</i>
   <i type="int" name="NBANDSV">    -1</i>
   <i type="int" name="NELM">    40</i>
   <i type="int" name="NELMHF">     1</i>
   <i type="int" name="DIM">     3</i>
   <i type="int" name="ANTIRES">     0</i>
   <i name="OMEGAMAX">    -30.00000000</i>
   <i name="OMEGAMIN">    -30.00000000</i>
   <i name="OMEGATL">   -200.00000000</i>
   <i type="int" name="OMEGAGRID">     0</i>
   <i name="CSHIFT">     -0.10000000</i>
   <i type="logical" name="SELFENERGY"> F  </i>
   <i type="logical" name="LSPECTRAL"> F  </i>
   <i type="logical" name="LSPECTRALGW"> F  </i>
   <i type="logical" name="LSINGLES"> F  </i>
   <i type="logical" name="LFERMIGW"> F  </i>
   <i type="logical" name="ODDONLYGW"> F  </i>
   <i type="logical" name="EVENONLYGW"> F  </i>
   <i type="int" name="NKREDLFX">     1</i>
   <i type="int" name="NKREDLFY">     1</i>
   <i type="int" name="NKREDLFZ">     1</i>
   <i type="int" name="MAXMEM">  1800</i>
   <i type="int" name="TELESCOPE">     0</i>
   <i type="int" name="TAUPAR">     1</i>
   <i type="int" name="OMEGAPAR">    -1</i>
   <i name="LAMBDA">      1.00000000</i>
  </separator>
  <separator name="External order field" >
   <i name="OFIELD_KAPPA">      0.00000000</i>
   <v name="OFIELD_K">      0.00000000      0.00000000      0.00000000</v>
   <i name="OFIELD_Q6_NEAR">      0.00000000</i>
   <i name="OFIELD_Q6_FAR">      0.00000000</i>
   <i name="OFIELD_A">      0.00000000</i>
  </separator>
 </parameters>
 <atominfo>
  <atoms>     152 </atoms>
  <types>       4 </types>
  <array name="atoms" >
   <dimension dim="1">ion</dimension>
   <field type="string">element</field>
   <field type="int">atomtype</field>
   <set>
    <rc><c>Sr</c><c>   1</c></rc>
    <rc><c>Sr</c><c>   1</c></rc>
    <rc><c>Sr</c><c>   1</c></rc>
    <rc><c>Sr</c><c>   1</c></rc>
    <rc><c>Sr</c><c>   1</c></rc>
    <rc><c>Sr</c><c>   1</c></rc>
    <rc><c>Sr</c><c>   1</c></rc>
    <rc><c>Sr</c><c>   1</c></rc>
    <rc><c>Sr</c><c>   1</c></rc>
    <rc><c>Sr</c><c>   1</c></rc>
    <rc><c>Sr</c><c>   1</c></rc>
    <rc><c>Sr</c><c>   1</c></rc>
    <rc><c>Sr</c><c>   1</c></rc>
    <rc><c>Sr</c><c>   1</c></rc>
    <rc><c>Sr</c><c>   1</c></rc>
    <rc><c>Sr</c><c>   1</c></rc>
    <rc><c>Sr</c><c>   1</c></rc>
    <rc><c>Sr</c><c>   1</c></rc>
    <rc><c>Sr</c><c>   1</c></rc>
    <rc><c>Sr</c><c>   1</c></rc>
    <rc><c>Sr</c><c>   1</c></rc>
    <rc><c>Sr</c><c>   1</c></rc>
    <rc><c>Sr</c><c>   1</c></rc>
    <rc><c>Sr</c><c>   1</c></rc>
    <rc><c>Sr</c><c>   1</c></rc>
    <rc><c>Sr</c><c>   1</c></rc>
    <rc><c>Sr</c><c>   1</c></rc>
    <rc><c>Sr</c><c>   1</c></rc>
    <rc><c>Sr</c><c>   1</c></rc>
    <rc><c>Sr</c><c>   1</c></rc>
    <rc><c>Sr</c><c>   1</c></rc>
    <rc><c>Sr</c><c>   1</c></rc>
    <rc><c>Ti</c><c>   2</c></rc>
    <rc><c>Ti</c><c>   2</c></rc>
    <rc><c>Ti</c><c>   2</c></rc>
    <rc><c>Ti</c><c>   2</c></rc>
    <rc><c>Ti</c><c>   2</c></rc>
    <rc><c>Ti</c><c>   2</c></rc>
    <rc><c>Ti</c><c>   2</c></rc>
    <rc><c>Ti</c><c>   2</c></rc>
    <rc><c>Ti</c><c>   2</c></rc>
    <rc><c>Ti</c><c>   2</c></rc>
    <rc><c>Ti</c><c>   2</c></rc>
    <rc><c>Ti</c><c>   2</c></rc>
    <rc><c>Ti</c><c>   2</c></rc>
    <rc><c>Ti</c><c>   2</c></rc>
    <rc><c>Ti</c><c>   2</c></rc>
    <rc><c>Ti</c><c>   2</c></rc>
    <rc><c>Fe</c><c>   3</c></rc>
    <rc><c>Fe</c><c>   3</c></rc>
    <rc><c>Fe</c><c>   3</c></rc>
    <rc><c>Fe</c><c>   3</c></rc>
    <rc><c>Fe</c><c>   3</c></rc>
    <rc><c>Fe</c><c>   3</c></rc>
    <rc><c>Fe</c><c>   3</c></rc>
    <rc><c>Fe</c><c>   3</c></rc>
    <rc><c>Fe</c><c>   3</c></rc>
    <rc><c>Fe</c><c>   3</c></rc>
    <rc><c>Fe</c><c>   3</c></rc>
    <rc><c>Fe</c><c>   3</c></rc>
    <rc><c>Fe</c><c>   3</c></rc>
    <rc><c>Fe</c><c>   3</c></rc>
    <rc><c>Fe</c><c>   3</c></rc>
    <rc><c>Fe</c><c>   3</c></rc>
    <rc><c>O </c><c>   4</c></rc>
    <rc><c>O </c><c>   4</c></rc>
    <rc><c>O </c><c>   4</c></rc>
    <rc><c>O </c><c>   4</c></rc>
    <rc><c>O </c><c>   4</c></rc>
    <rc><c>O </c><c>   4</c></rc>
    <rc><c>O </c><c>   4</c></rc>
    <rc><c>O </c><c>   4</c></rc>
    <rc><c>O </c><c>   4</c></rc>
    <rc><c>O </c><c>   4</c></rc>
    <rc><c>O </c><c>   4</c></rc>
    <rc><c>O </c><c>   4</c></rc>
    <rc><c>O </c><c>   4</c></rc>
    <rc><c>O </c><c>   4</c></rc>
    <rc><c>O </c><c>   4</c></rc>
    <rc><c>O </c><c>   4</c></rc>
    <rc><c>O </c><c>   4</c></rc>
    <rc><c>O </c><c>   4</c></rc>
    <rc><c>O </c><c>   4</c></rc>
    <rc><c>O </c><c>   4</c></rc>
    <rc><c>O </c><c>   4</c></rc>
    <rc><c>O </c><c>   4</c></rc>
    <rc><c>O </c><c>   4</c></rc>
    <rc><c>O </c><c>   4</c></rc>
    <rc><c>O </c><c>   4</c></rc>
    <rc><c>O </c><c>   4</c></rc>
    <rc><c>O </c><c>   4</c></rc>
    <rc><c>O </c><c>   4</c></rc>
    <rc><c>O </c><c>   4</c></rc>
    <rc><c>O </c><c>   4</c></rc>
    <rc><c>O </c><c>   4</c></rc>
    <rc><c>O </c><c>   4</c></rc>
    <rc><c>O </c><c>   4</c></rc>
    <rc><c>O </c><c>   4</c></rc>
    <rc><c>O </c><c>   4</c></rc>
    <rc><c>O </c><c>   4</c></rc>
    <rc><c>O </c><c>   4</c></rc>
    <rc><c>O </c><c>   4</c></rc>
    <rc><c>O </c><c>   4</c></rc>
    <rc><c>O </c><c>   4</c></rc>
    <rc><c>O </c><c>   4</c></rc>
    <rc><c>O </c><c>   4</c></rc>
    <rc><c>O </c><c>   4</c></rc>
    <rc><c>O </c><c>   4</c></rc>
    <rc><c>O </c><c>   4</c></rc>
    <rc><c>O </c><c>   4</c></rc>
    <rc><c>O </c><c>   4</c></rc>
    <rc><c>O </c><c>   4</c></rc>
    <rc><c>O </c><c>   4</c></rc>
    <rc><c>O </c><c>   4</c></rc>
    <rc><c>O </c><c>   4</c></rc>
    <rc><c>O </c><c>   4</c></rc>
    <rc><c>O </c><c>   4</c></rc>
    <rc><c>O </c><c>   4</c></rc>
    <rc><c>O </c><c>   4</c></rc>
    <rc><c>O </c><c>   4</c></rc>
    <rc><c>O </c><c>   4</c></rc>
    <rc><c>O </c><c>   4</c></rc>
    <rc><c>O </c><c>   4</c></rc>
    <rc><c>O </c><c>   4</c></rc>
    <rc><c>O </c><c>   4</c></rc>
    <rc><c>O </c><c>   4</c></rc>
    <rc><c>O </c><c>   4</c></rc>
    <rc><c>O </c><c>   4</c></rc>
    <rc><c>O </c><c>   4</c></rc>
    <rc><c>O </c><c>   4</c></rc>
    <rc><c>O </c><c>   4</c></rc>
    <rc><c>O </c><c>   4</c></rc>
    <rc><c>O </c><c>   4</c></rc>
    <rc><c>O </c><c>   4</c></rc>
    <rc><c>O </c><c>   4</c></rc>
    <rc><c>O </c><c>   4</c></rc>
    <rc><c>O </c><c>   4</c></rc>
    <rc><c>O </c><c>   4</c></rc>
    <rc><c>O </c><c>   4</c></rc>
    <rc><c>O </c><c>   4</c></rc>
    <rc><c>O </c><c>   4</c></rc>
    <rc><c>O </c><c>   4</c></rc>
    <rc><c>O </c><c>   4</c></rc>
    <rc><c>O </c><c>   4</c></rc>
    <rc><c>O </c><c>   4</c></rc>
    <rc><c>O </c><c>   4</c></rc>
    <rc><c>O </c><c>   4</c></rc>
    <rc><c>O </c><c>   4</c></rc>
    <rc><c>O </c><c>   4</c></rc>
    <rc><c>O </c><c>   4</c></rc>
    <rc><c>O </c><c>   4</c></rc>
    <rc><c>O </c><c>   4</c></rc>
   </set>
  </array>
  <array name="atomtypes" >
   <dimension dim="1">type</dimension>
   <field type="int">atomspertype</field>
   <field type="string">element</field>
   <field>mass</field>
   <field>valence</field>
   <field type="string">pseudopotential</field>
   <set>
    <rc><c>  32</c><c>Sr</c><c>     87.62000000</c><c>     10.00000000</c><c>  PAW_PBE Sr_sv 07Sep2000               </c></rc>
    <rc><c>  16</c><c>Ti</c><c>     47.88000000</c><c>      4.00000000</c><c>  PAW_PBE Ti 08Apr2002                  </c></rc>
    <rc><c>  16</c><c>Fe</c><c>     55.84700000</c><c>      8.00000000</c><c>  PAW_PBE Fe 06Sep2000                  </c></rc>
    <rc><c>  88</c><c>O </c><c>     16.00000000</c><c>      6.00000000</c><c>  PAW_PBE O 08Apr2002                   </c></rc>
   </set>
  </array>
 </atominfo>
 <structure name="initialpos" >
  <crystal>
   <varray name="basis" >
    <v>      11.29988351       0.00000000       0.00000000 </v>
    <v>       0.00000000      11.28182048       0.00000000 </v>
    <v>       0.00000000       0.00000000      15.61712965 </v>
   </varray>
   <i name="volume">   1990.92255664 </i>
   <varray name="rec_basis" >
    <v>       0.08849649       0.00000000       0.00000000 </v>
    <v>       0.00000000       0.08863818       0.00000000 </v>
    <v>       0.00000000       0.00000000       0.06403225 </v>
   </varray>
  </crystal>
  <varray name="positions" >
   <v>       0.99903560       0.24801588       0.12455633 </v>
   <v>       0.00141487       0.25229661       0.62911989 </v>
   <v>       0.99903560       0.74801588       0.12455633 </v>
   <v>       0.00141487       0.75229661       0.62911989 </v>
   <v>       0.49903560       0.24801588       0.12455633 </v>
   <v>       0.50141487       0.25229661       0.62911989 </v>
   <v>       0.49903560       0.74801588       0.12455633 </v>
   <v>       0.50141487       0.75229661       0.62911989 </v>
   <v>       0.00141487       0.25229661       0.37088011 </v>
   <v>       0.99903560       0.24801588       0.87544367 </v>
   <v>       0.00141487       0.75229661       0.37088011 </v>
   <v>       0.99903560       0.74801588       0.87544367 </v>
   <v>       0.50141487       0.25229661       0.37088011 </v>
   <v>       0.49903560       0.24801588       0.87544367 </v>
   <v>       0.50141487       0.75229661       0.37088011 </v>
   <v>       0.49903560       0.74801588       0.87544367 </v>
   <v>       0.25141487       0.99770339       0.12911989 </v>
   <v>       0.24903560       0.00198412       0.62455633 </v>
   <v>       0.25141487       0.49770339       0.12911989 </v>
   <v>       0.24903560       0.50198412       0.62455633 </v>
   <v>       0.75141487       0.99770339       0.12911989 </v>
   <v>       0.74903560       0.00198412       0.62455633 </v>
   <v>       0.75141487       0.49770339       0.12911989 </v>
   <v>       0.74903560       0.50198412       0.62455633 </v>
   <v>       0.24903560       0.00198412       0.37544367 </v>
   <v>       0.25141487       0.99770339       0.87088011 </v>
   <v>       0.24903560       0.50198412       0.37544367 </v>
   <v>       0.25141487       0.49770339       0.87088011 </v>
   <v>       0.74903560       0.00198412       0.37544367 </v>
   <v>       0.75141487       0.99770339       0.87088011 </v>
   <v>       0.74903560       0.50198412       0.37544367 </v>
   <v>       0.75141487       0.49770339       0.87088011 </v>
   <v>       0.25108545       0.24718251       0.24992643 </v>
   <v>       0.25108545       0.24718251       0.75007357 </v>
   <v>       0.25108545       0.74718251       0.24992643 </v>
   <v>       0.25108545       0.74718251       0.75007357 </v>
   <v>       0.75108545       0.24718251       0.24992643 </v>
   <v>       0.75108545       0.24718251       0.75007357 </v>
   <v>       0.75108545       0.74718251       0.24992643 </v>
   <v>       0.75108545       0.74718251       0.75007357 </v>
   <v>       0.00108545       0.00281749       0.25007357 </v>
   <v>       0.00108545       0.00281749       0.74992643 </v>
   <v>       0.00108545       0.50281749       0.25007357 </v>
   <v>       0.00108545       0.50281749       0.74992643 </v>
   <v>       0.50108545       0.00281749       0.25007357 </v>
   <v>       0.50108545       0.00281749       0.74992643 </v>
   <v>       0.50108545       0.50281749       0.25007357 </v>
   <v>       0.50108545       0.50281749       0.74992643 </v>
   <v>       0.98989477       0.98969494       0.00000000 </v>
   <v>       0.48989477       0.98969494       0.00000000 </v>
   <v>       0.75562394       0.26007544       0.00000000 </v>
   <v>       0.25562394       0.26007544       0.00000000 </v>
   <v>       0.98989477       0.48969494       0.00000000 </v>
   <v>       0.48989477       0.48969494       0.00000000 </v>
   <v>       0.75562394       0.76007544       0.00000000 </v>
   <v>       0.25562394       0.76007544       0.00000000 </v>
   <v>       0.00562394       0.98992456       0.50000000 </v>
   <v>       0.50562394       0.98992456       0.50000000 </v>
   <v>       0.23989477       0.26030506       0.50000000 </v>
   <v>       0.73989477       0.26030506       0.50000000 </v>
   <v>       0.00562394       0.48992456       0.50000000 </v>
   <v>       0.50562394       0.48992456       0.50000000 </v>
   <v>       0.23989477       0.76030506       0.50000000 </v>
   <v>       0.73989477       0.76030506       0.50000000 </v>
   <v>       0.12011466       0.13196830       0.25965469 </v>
   <v>       0.12011466       0.13196830       0.74034531 </v>
   <v>       0.12011466       0.63196830       0.25965469 </v>
   <v>       0.12011466       0.63196830       0.74034531 </v>
   <v>       0.62011466       0.13196830       0.25965469 </v>
   <v>       0.62011466       0.13196830       0.74034531 </v>
   <v>       0.62011466       0.63196830       0.25965469 </v>
   <v>       0.62011466       0.63196830       0.74034531 </v>
   <v>       0.38203266       0.36961859       0.23869106 </v>
   <v>       0.38203266       0.36961859       0.76130894 </v>
   <v>       0.38203266       0.86961859       0.23869106 </v>
   <v>       0.38203266       0.86961859       0.76130894 </v>
   <v>       0.88203266       0.36961859       0.23869106 </v>
   <v>       0.88203266       0.36961859       0.76130894 </v>
   <v>       0.88203266       0.86961859       0.23869106 </v>
   <v>       0.88203266       0.86961859       0.76130894 </v>
   <v>       0.37011466       0.11803170       0.24034531 </v>
   <v>       0.37011466       0.11803170       0.75965469 </v>
   <v>       0.37011466       0.61803170       0.24034531 </v>
   <v>       0.37011466       0.61803170       0.75965469 </v>
   <v>       0.87011466       0.11803170       0.24034531 </v>
   <v>       0.87011466       0.11803170       0.75965469 </v>
   <v>       0.87011466       0.61803170       0.24034531 </v>
   <v>       0.87011466       0.61803170       0.75965469 </v>
   <v>       0.13203266       0.38038141       0.26130894 </v>
   <v>       0.13203266       0.38038141       0.73869106 </v>
   <v>       0.13203266       0.88038141       0.26130894 </v>
   <v>       0.13203266       0.88038141       0.73869106 </v>
   <v>       0.63203266       0.38038141       0.26130894 </v>
   <v>       0.63203266       0.38038141       0.73869106 </v>
   <v>       0.63203266       0.88038141       0.26130894 </v>
   <v>       0.63203266       0.88038141       0.73869106 </v>
   <v>       0.35305199       0.39511335       0.00000000 </v>
   <v>       0.35463885       0.39561116       0.50000000 </v>
   <v>       0.35305199       0.89511335       0.00000000 </v>
   <v>       0.35463885       0.89561116       0.50000000 </v>
   <v>       0.85305199       0.39511335       0.00000000 </v>
   <v>       0.85463885       0.39561116       0.50000000 </v>
   <v>       0.85305199       0.89511335       0.00000000 </v>
   <v>       0.85463885       0.89561116       0.50000000 </v>
   <v>       0.13529996       0.11144961       0.50000000 </v>
   <v>       0.13529996       0.61144961       0.50000000 </v>
   <v>       0.63529996       0.11144961       0.50000000 </v>
   <v>       0.63529996       0.61144961       0.50000000 </v>
   <v>       0.10463885       0.35438884       0.00000000 </v>
   <v>       0.10305199       0.35488665       0.50000000 </v>
   <v>       0.10463885       0.85438884       0.00000000 </v>
   <v>       0.10305199       0.85488665       0.50000000 </v>
   <v>       0.60463885       0.35438884       0.00000000 </v>
   <v>       0.60305199       0.35488665       0.50000000 </v>
   <v>       0.60463885       0.85438884       0.00000000 </v>
   <v>       0.60305199       0.85488665       0.50000000 </v>
   <v>       0.38529996       0.13855039       0.00000000 </v>
   <v>       0.38529996       0.63855039       0.00000000 </v>
   <v>       0.88529996       0.13855039       0.00000000 </v>
   <v>       0.88529996       0.63855039       0.00000000 </v>
   <v>       0.02520743       0.01418159       0.12204650 </v>
   <v>       0.98135457       0.01284272       0.62401431 </v>
   <v>       0.02520743       0.51418159       0.12204650 </v>
   <v>       0.98135457       0.51284272       0.62401431 </v>
   <v>       0.52520743       0.01418159       0.12204650 </v>
   <v>       0.48135457       0.01284272       0.62401431 </v>
   <v>       0.52520743       0.51418159       0.12204650 </v>
   <v>       0.48135457       0.51284272       0.62401431 </v>
   <v>       0.98135457       0.01284272       0.37598569 </v>
   <v>       0.02520743       0.01418159       0.87795350 </v>
   <v>       0.98135457       0.51284272       0.37598569 </v>
   <v>       0.02520743       0.51418159       0.87795350 </v>
   <v>       0.48135457       0.01284272       0.37598569 </v>
   <v>       0.52520743       0.01418159       0.87795350 </v>
   <v>       0.48135457       0.51284272       0.37598569 </v>
   <v>       0.52520743       0.51418159       0.87795350 </v>
   <v>       0.27520743       0.23581841       0.37795350 </v>
   <v>       0.23135457       0.23715728       0.87598569 </v>
   <v>       0.27520743       0.73581841       0.37795350 </v>
   <v>       0.23135457       0.73715728       0.87598569 </v>
   <v>       0.77520743       0.23581841       0.37795350 </v>
   <v>       0.73135457       0.23715728       0.87598569 </v>
   <v>       0.77520743       0.73581841       0.37795350 </v>
   <v>       0.73135457       0.73715728       0.87598569 </v>
   <v>       0.23135457       0.23715728       0.12401431 </v>
   <v>       0.27520743       0.23581841       0.62204650 </v>
   <v>       0.23135457       0.73715728       0.12401431 </v>
   <v>       0.27520743       0.73581841       0.62204650 </v>
   <v>       0.73135457       0.23715728       0.12401431 </v>
   <v>       0.77520743       0.23581841       0.62204650 </v>
   <v>       0.73135457       0.73715728       0.12401431 </v>
   <v>       0.77520743       0.73581841       0.62204650 </v>
  </varray>
 </structure>
 <calculation>
  <scstep>
   <time name="dav">   75.23   75.24</time>
   <time name="total">   77.20   77.28</time>
   <energy>
    <i name="alphaZ">   5656.79335688 </i>
    <i name="ewald"> -62927.90973008 </i>
    <i name="hartreedc"> -16771.28737239 </i>
    <i name="XCdc">   3187.22665391 </i>
    <i name="pawpsdc"> 115326.27110801 </i>
    <i name="pawaedc">-114530.04362533 </i>
    <i name="eentropy">     -0.00000000 </i>
    <i name="bandstr">  -7045.92412790 </i>
    <i name="atom">  76050.17612637 </i>
    <i name="e_fr_energy">  -1054.69761052 </i>
    <i name="e_wo_entrp">  -1054.69761052 </i>
    <i name="e_0_energy">  -1054.69761052 </i>
   </energy>
  </scstep>
  <scstep>
   <time name="diag">    8.21    8.22</time>
   <time name="diis">    8.05    8.05</time>
   <time name="orth">    4.70    4.71</time>
   <time name="total">   22.96   23.01</time>
   <energy>
    <i name="e_fr_energy">  -1054.69760897 </i>
    <i name="e_wo_entrp">  -1054.69760897 </i>
    <i name="e_0_energy">  -1054.69760897 </i>
   </energy>
  </scstep>
  <scstep>
   <time name="diag">    8.23    8.24</time>
   <time name="diis">    7.84    7.85</time>
   <time name="orth">    4.69    4.69</time>
   <time name="total">   22.75   22.82</time>
   <energy>
    <i name="e_fr_energy">  -1054.69761012 </i>
    <i name="e_wo_entrp">  -1054.69761012 </i>
    <i name="e_0_energy">  -1054.69761012 </i>
   </energy>
  </scstep>
  <scstep>
   <time name="diag">    8.24    8.24</time>
   <time name="diis">    7.61    7.61</time>
   <time name="orth">    4.70    4.70</time>
   <time name="total">   22.53   22.61</time>
   <energy>
    <i name="e_fr_energy">  -1054.69761363 </i>
    <i name="e_wo_entrp">  -1054.69761363 </i>
    <i name="e_0_energy">  -1054.69761363 </i>
   </energy>
  </scstep>
  <scstep>
   <time name="diag">    8.22    8.22</time>
   <time name="diis">    7.56    7.57</time>
   <time name="orth">    4.69    4.69</time>
   <time name="total">   22.47   22.63</time>
   <energy>
    <i name="e_fr_energy">  -1054.69761564 </i>
    <i name="e_wo_entrp">  -1054.69761564 </i>
    <i name="e_0_energy">  -1054.69761564 </i>
   </energy>
  </scstep>
  <scstep>
   <time name="diag">    8.23    8.24</time>
   <time name="diis">    6.90    6.90</time>
   <time name="orth">    4.69    4.69</time>
   <time name="total">   21.81   21.87</time>
   <energy>
    <i name="e_fr_energy">  -1054.69761570 </i>
    <i name="e_wo_entrp">  -1054.69761570 </i>
    <i name="e_0_energy">  -1054.69761570 </i>
   </energy>
  </scstep>
  <scstep>
   <time name="diag">    8.22    8.23</time>
   <time name="diis">    6.41    6.41</time>
   <time name="orth">    4.72    4.72</time>
   <time name="total">   21.33   21.43</time>
   <energy>
    <i name="e_fr_energy">  -1054.69761584 </i>
    <i name="e_wo_entrp">  -1054.69761584 </i>
    <i name="e_0_energy">  -1054.69761584 </i>
   </energy>
  </scstep>
  <scstep>
   <time name="diag">    8.21    8.21</time>
   <time name="diis">    6.20    6.21</time>
   <time name="orth">    4.70    4.70</time>
   <time name="total">   19.69   19.75</time>
   <energy>
    <i name="alphaZ">   5656.79335688 </i>
    <i name="ewald"> -62927.90973008 </i>
    <i name="hartreedc"> -16771.21473888 </i>
    <i name="XCdc">   3187.21632865 </i>
    <i name="pawpsdc"> 115318.54024179 </i>
    <i name="pawaedc">-114522.33041161 </i>
    <i name="eentropy">     -0.00000000 </i>
    <i name="bandstr">  -7045.96878907 </i>
    <i name="atom">  76050.17612637 </i>
    <i name="e_fr_energy">  -1054.69761595 </i>
    <i name="e_wo_entrp">  -1054.69761595 </i>
    <i name="e_0_energy">  -1054.69761595 </i>
   </energy>
  </scstep>
  <structure>
   <crystal>
    <varray name="basis" >
     <v>      11.29988351       0.00000000       0.00000000 </v>
     <v>       0.00000000      11.28182048       0.00000000 </v>
     <v>       0.00000000       0.00000000      15.61712965 </v>
    </varray>
    <i name="volume">   1990.92255664 </i>
    <varray name="rec_basis" >
     <v>       0.08849649       0.00000000       0.00000000 </v>
     <v>       0.00000000       0.08863818       0.00000000 </v>
     <v>       0.00000000       0.00000000       0.06403225 </v>
    </varray>
   </crystal>
   <varray name="positions" >
    <v>       0.99903560       0.24801588       0.12455633 </v>
    <v>       0.00141487       0.25229661       0.62911989 </v>
    <v>       0.99903560       0.74801588       0.12455633 </v>
    <v>       0.00141487       0.75229661       0.62911989 </v>
    <v>       0.49903560       0.24801588       0.12455633 </v>
    <v>       0.50141487       0.25229661       0.62911989 </v>
    <v>       0.49903560       0.74801588       0.12455633 </v>
    <v>       0.50141487       0.75229661       0.62911989 </v>
    <v>       0.00141487       0.25229661       0.37088011 </v>
    <v>       0.99903560       0.24801588       0.87544367 </v>
    <v>       0.00141487       0.75229661       0.37088011 </v>
    <v>       0.99903560       0.74801588       0.87544367 </v>
    <v>       0.50141487       0.25229661       0.37088011 </v>
    <v>       0.49903560       0.24801588       0.87544367 </v>
    <v>       0.50141487       0.75229661       0.37088011 </v>
    <v>       0.49903560       0.74801588       0.87544367 </v>
    <v>       0.25141487       0.99770339       0.12911989 </v>
    <v>       0.24903560       0.00198412       0.62455633 </v>
    <v>       0.25141487       0.49770339       0.12911989 </v>
    <v>       0.24903560       0.50198412       0.62455633 </v>
    <v>       0.75141487       0.99770339       0.12911989 </v>
    <v>       0.74903560       0.00198412       0.62455633 </v>
    <v>       0.75141487       0.49770339       0.12911989 </v>
    <v>       0.74903560       0.50198412       0.62455633 </v>
    <v>       0.24903560       0.00198412       0.37544367 </v>
    <v>       0.25141487       0.99770339       0.87088011 </v>
    <v>       0.24903560       0.50198412       0.37544367 </v>
    <v>       0.25141487       0.49770339       0.87088011 </v>
    <v>       0.74903560       0.00198412       0.37544367 </v>
    <v>       0.75141487       0.99770339       0.87088011 </v>
    <v>       0.74903560       0.50198412       0.37544367 </v>
    <v>       0.75141487       0.49770339       0.87088011 </v>
    <v>       0.25108545       0.24718251       0.24992643 </v>
    <v>       0.25108545       0.24718251       0.75007357 </v>
    <v>       0.25108545       0.74718251       0.24992643 </v>
    <v>       0.25108545       0.74718251       0.75007357 </v>
    <v>       0.75108545       0.24718251       0.24992643 </v>
    <v>       0.75108545       0.24718251       0.75007357 </v>
    <v>       0.75108545       0.74718251       0.24992643 </v>
    <v>       0.75108545       0.74718251       0.75007357 </v>
    <v>       0.00108545       0.00281749       0.25007357 </v>
    <v>       0.00108545       0.00281749       0.74992643 </v>
    <v>       0.00108545       0.50281749       0.25007357 </v>
    <v>       0.00108545       0.50281749       0.74992643 </v>
    <v>       0.50108545       0.00281749       0.25007357 </v>
    <v>       0.50108545       0.00281749       0.74992643 </v>
    <v>       0.50108545       0.50281749       0.25007357 </v>
    <v>       0.50108545       0.50281749       0.74992643 </v>
    <v>       0.98989477       0.98969494       0.00000000 </v>
    <v>       0.48989477       0.98969494       0.00000000 </v>
    <v>       0.75562394       0.26007544       0.00000000 </v>
    <v>       0.25562394       0.26007544       0.00000000 </v>
    <v>       0.98989477       0.48969494       0.00000000 </v>
    <v>       0.48989477       0.48969494       0.00000000 </v>
    <v>       0.75562394       0.76007544       0.00000000 </v>
    <v>       0.25562394       0.76007544       0.00000000 </v>
    <v>       0.00562394       0.98992456       0.50000000 </v>
    <v>       0.50562394       0.98992456       0.50000000 </v>
    <v>       0.23989477       0.26030506       0.50000000 </v>
    <v>       0.73989477       0.26030506       0.50000000 </v>
    <v>       0.00562394       0.48992456       0.50000000 </v>
    <v>       0.50562394       0.48992456       0.50000000 </v>
    <v>       0.23989477       0.76030506       0.50000000 </v>
    <v>       0.73989477       0.76030506       0.50000000 </v>
    <v>       0.12011466       0.13196830       0.25965469 </v>
    <v>       0.12011466       0.13196830       0.74034531 </v>
    <v>       0.12011466       0.63196830       0.25965469 </v>
    <v>       0.12011466       0.63196830       0.74034531 </v>
    <v>       0.62011466       0.13196830       0.25965469 </v>
    <v>       0.62011466       0.13196830       0.74034531 </v>
    <v>       0.62011466       0.63196830       0.25965469 </v>
    <v>       0.62011466       0.63196830       0.74034531 </v>
    <v>       0.38203266       0.36961859       0.23869106 </v>
    <v>       0.38203266       0.36961859       0.76130894 </v>
    <v>       0.38203266       0.86961859       0.23869106 </v>
    <v>       0.38203266       0.86961859       0.76130894 </v>
    <v>       0.88203266       0.36961859       0.23869106 </v>
    <v>       0.88203266       0.36961859       0.76130894 </v>
    <v>       0.88203266       0.86961859       0.23869106 </v>
    <v>       0.88203266       0.86961859       0.76130894 </v>
    <v>       0.37011466       0.11803170       0.24034531 </v>
    <v>       0.37011466       0.11803170       0.75965469 </v>
    <v>       0.37011466       0.61803170       0.24034531 </v>
    <v>       0.37011466       0.61803170       0.75965469 </v>
    <v>       0.87011466       0.11803170       0.24034531 </v>
    <v>       0.87011466       0.11803170       0.75965469 </v>
    <v>       0.87011466       0.61803170       0.24034531 </v>
    <v>       0.87011466       0.61803170       0.75965469 </v>
    <v>       0.13203266       0.38038141       0.26130894 </v>
    <v>       0.13203266       0.38038141       0.73869106 </v>
    <v>       0.13203266       0.88038141       0.26130894 </v>
    <v>       0.13203266       0.88038141       0.73869106 </v>
    <v>       0.63203266       0.38038141       0.26130894 </v>
    <v>       0.63203266       0.38038141       0.73869106 </v>
    <v>       0.63203266       0.88038141       0.26130894 </v>
    <v>       0.63203266       0.88038141       0.73869106 </v>
    <v>       0.35305199       0.39511335       0.00000000 </v>
    <v>       0.35463885       0.39561116       0.50000000 </v>
    <v>       0.35305199       0.89511335       0.00000000 </v>
    <v>       0.35463885       0.89561116       0.50000000 </v>
    <v>       0.85305199       0.39511335       0.00000000 </v>
    <v>       0.85463885       0.39561116       0.50000000 </v>
    <v>       0.85305199       0.89511335       0.00000000 </v>
    <v>       0.85463885       0.89561116       0.50000000 </v>
    <v>       0.13529996       0.11144961       0.50000000 </v>
    <v>       0.13529996       0.61144961       0.50000000 </v>
    <v>       0.63529996       0.11144961       0.50000000 </v>
    <v>       0.63529996       0.61144961       0.50000000 </v>
    <v>       0.10463885       0.35438884       0.00000000 </v>
    <v>       0.10305199       0.35488665       0.50000000 </v>
    <v>       0.10463885       0.85438884       0.00000000 </v>
    <v>       0.10305199       0.85488665       0.50000000 </v>
    <v>       0.60463885       0.35438884       0.00000000 </v>
    <v>       0.60305199       0.35488665       0.50000000 </v>
    <v>       0.60463885       0.85438884       0.00000000 </v>
    <v>       0.60305199       0.85488665       0.50000000 </v>
    <v>       0.38529996       0.13855039       0.00000000 </v>
    <v>       0.38529996       0.63855039       0.00000000 </v>
    <v>       0.88529996       0.13855039       0.00000000 </v>
    <v>       0.88529996       0.63855039       0.00000000 </v>
    <v>       0.02520743       0.01418159       0.12204650 </v>
    <v>       0.98135457       0.01284272       0.62401431 </v>
    <v>       0.02520743       0.51418159       0.12204650 </v>
    <v>       0.98135457       0.51284272       0.62401431 </v>
    <v>       0.52520743       0.01418159       0.12204650 </v>
    <v>       0.48135457       0.01284272       0.62401431 </v>
    <v>       0.52520743       0.51418159       0.12204650 </v>
    <v>       0.48135457       0.51284272       0.62401431 </v>
    <v>       0.98135457       0.01284272       0.37598569 </v>
    <v>       0.02520743       0.01418159       0.87795350 </v>
    <v>       0.98135457       0.51284272       0.37598569 </v>
    <v>       0.02520743       0.51418159       0.87795350 </v>
    <v>       0.48135457       0.01284272       0.37598569 </v>
    <v>       0.52520743       0.01418159       0.87795350 </v>
    <v>       0.48135457       0.51284272       0.37598569 </v>
    <v>       0.52520743       0.51418159       0.87795350 </v>
    <v>       0.27520743       0.23581841       0.37795350 </v>
    <v>       0.23135457       0.23715728       0.87598569 </v>
    <v>       0.27520743       0.73581841       0.37795350 </v>
    <v>       0.23135457       0.73715728       0.87598569 </v>
    <v>       0.77520743       0.23581841       0.37795350 </v>
    <v>       0.73135457       0.23715728       0.87598569 </v>
    <v>       0.77520743       0.73581841       0.37795350 </v>
    <v>       0.73135457       0.73715728       0.87598569 </v>
    <v>       0.23135457       0.23715728       0.12401431 </v>
    <v>       0.27520743       0.23581841       0.62204650 </v>
    <v>       0.23135457       0.73715728       0.12401431 </v>
    <v>       0.27520743       0.73581841       0.62204650 </v>
    <v>       0.73135457       0.23715728       0.12401431 </v>
    <v>       0.77520743       0.23581841       0.62204650 </v>
    <v>       0.73135457       0.73715728       0.12401431 </v>
    <v>       0.77520743       0.73581841       0.62204650 </v>
   </varray>
  </structure>
  <varray name="forces" >
   <v>       0.00876768      -0.00589075       0.00320255 </v>
   <v>      -0.00254118      -0.01313337      -0.01520159 </v>
   <v>       0.00876768      -0.00589075       0.00320255 </v>
   <v>      -0.00254118      -0.01313337      -0.01520159 </v>
   <v>       0.00876768      -0.00589075       0.00320255 </v>
   <v>      -0.00254118      -0.01313337      -0.01520159 </v>
   <v>       0.00876768      -0.00589075       0.00320255 </v>
   <v>      -0.00254118      -0.01313337      -0.01520159 </v>
   <v>      -0.00254118      -0.01313337       0.01520159 </v>
   <v>       0.00876768      -0.00589075      -0.00320255 </v>
   <v>      -0.00254118      -0.01313337       0.01520159 </v>
   <v>       0.00876768      -0.00589075      -0.00320255 </v>
   <v>      -0.00254118      -0.01313337       0.01520159 </v>
   <v>       0.00876768      -0.00589075      -0.00320255 </v>
   <v>      -0.00254118      -0.01313337       0.01520159 </v>
   <v>       0.00876768      -0.00589075      -0.00320255 </v>
   <v>      -0.00254118       0.01313337      -0.01520159 </v>
   <v>       0.00876768       0.00589075       0.00320255 </v>
   <v>      -0.00254118       0.01313337      -0.01520159 </v>
   <v>       0.00876768       0.00589075       0.00320255 </v>
   <v>      -0.00254118       0.01313337      -0.01520159 </v>
   <v>       0.00876768       0.00589075       0.00320255 </v>
   <v>      -0.00254118       0.01313337      -0.01520159 </v>
   <v>       0.00876768       0.00589075       0.00320255 </v>
   <v>       0.00876768       0.00589075      -0.00320255 </v>
   <v>      -0.00254118       0.01313337       0.01520159 </v>
   <v>       0.00876768       0.00589075      -0.00320255 </v>
   <v>      -0.00254118       0.01313337       0.01520159 </v>
   <v>       0.00876768       0.00589075      -0.00320255 </v>
   <v>      -0.00254118       0.01313337       0.01520159 </v>
   <v>       0.00876768       0.00589075      -0.00320255 </v>
   <v>      -0.00254118       0.01313337       0.01520159 </v>
   <v>      -0.01173335       0.00051165       0.00732701 </v>
   <v>      -0.01173335       0.00051165      -0.00732701 </v>
   <v>      -0.01173335       0.00051165       0.00732701 </v>
   <v>      -0.01173335       0.00051165      -0.00732701 </v>
   <v>      -0.01173335       0.00051165       0.00732701 </v>
   <v>      -0.01173335       0.00051165      -0.00732701 </v>
   <v>      -0.01173335       0.00051165       0.00732701 </v>
   <v>      -0.01173335       0.00051165      -0.00732701 </v>
   <v>      -0.01173335      -0.00051165      -0.00732701 </v>
   <v>      -0.01173335      -0.00051165       0.00732701 </v>
   <v>      -0.01173335      -0.00051165      -0.00732701 </v>
   <v>      -0.01173335      -0.00051165       0.00732701 </v>
   <v>      -0.01173335      -0.00051165      -0.00732701 </v>
   <v>      -0.01173335      -0.00051165       0.00732701 </v>
   <v>      -0.01173335      -0.00051165      -0.00732701 </v>
   <v>      -0.01173335      -0.00051165       0.00732701 </v>
   <v>       0.03368231      -0.00224681      -0.00000000 </v>
   <v>       0.03368231      -0.00224681      -0.00000000 </v>
   <v>       0.00435813       0.02175398      -0.00000000 </v>
   <v>       0.00435813       0.02175398      -0.00000000 </v>
   <v>       0.03368231      -0.00224681      -0.00000000 </v>
   <v>       0.03368231      -0.00224681      -0.00000000 </v>
   <v>       0.00435813       0.02175398      -0.00000000 </v>
   <v>       0.00435813       0.02175398      -0.00000000 </v>
   <v>       0.00435813      -0.02175398      -0.00000000 </v>
   <v>       0.00435813      -0.02175398      -0.00000000 </v>
   <v>       0.03368231       0.00224681      -0.00000000 </v>
   <v>       0.03368231       0.00224681      -0.00000000 </v>
   <v>       0.00435813      -0.02175398      -0.00000000 </v>
   <v>       0.00435813      -0.02175398      -0.00000000 </v>
   <v>       0.03368231       0.00224681      -0.00000000 </v>
   <v>       0.03368231       0.00224681      -0.00000000 </v>
   <v>      -0.00077746      -0.01062035       0.02523611 </v>
   <v>      -0.00077746      -0.01062035      -0.02523611 </v>
   <v>      -0.00077746      -0.01062035       0.02523611 </v>
   <v>      -0.00077746      -0.01062035      -0.02523611 </v>
   <v>      -0.00077746      -0.01062035       0.02523611 </v>
   <v>      -0.00077746      -0.01062035      -0.02523611 </v>
   <v>      -0.00077746      -0.01062035       0.02523611 </v>
   <v>      -0.00077746      -0.01062035      -0.02523611 </v>
   <v>      -0.00116449      -0.00102280       0.00386334 </v>
   <v>      -0.00116449      -0.00102280      -0.00386334 </v>
   <v>      -0.00116449      -0.00102280       0.00386334 </v>
   <v>      -0.00116449      -0.00102280      -0.00386334 </v>
   <v>      -0.00116449      -0.00102280       0.00386334 </v>
   <v>      -0.00116449      -0.00102280      -0.00386334 </v>
   <v>      -0.00116449      -0.00102280       0.00386334 </v>
   <v>      -0.00116449      -0.00102280      -0.00386334 </v>
   <v>      -0.00077746       0.01062035      -0.02523611 </v>
   <v>      -0.00077746       0.01062035       0.02523611 </v>
   <v>      -0.00077746       0.01062035      -0.02523611 </v>
   <v>      -0.00077746       0.01062035       0.02523611 </v>
   <v>      -0.00077746       0.01062035      -0.02523611 </v>
   <v>      -0.00077746       0.01062035       0.02523611 </v>
   <v>      -0.00077746       0.01062035      -0.02523611 </v>
   <v>      -0.00077746       0.01062035       0.02523611 </v>
   <v>      -0.00116449       0.00102280      -0.00386334 </v>
   <v>      -0.00116449       0.00102280       0.00386334 </v>
   <v>      -0.00116449       0.00102280      -0.00386334 </v>
   <v>      -0.00116449       0.00102280       0.00386334 </v>
   <v>      -0.00116449       0.00102280      -0.00386334 </v>
   <v>      -0.00116449       0.00102280       0.00386334 </v>
   <v>      -0.00116449       0.00102280      -0.00386334 </v>
   <v>      -0.00116449       0.00102280       0.00386334 </v>
   <v>      -0.03305648      -0.00630125      -0.00000000 </v>
   <v>       0.01776660       0.02099712      -0.00000000 </v>
   <v>      -0.03305648      -0.00630125      -0.00000000 </v>
   <v>       0.01776660       0.02099712      -0.00000000 </v>
   <v>      -0.03305648      -0.00630125      -0.00000000 </v>
   <v>       0.01776660       0.02099712      -0.00000000 </v>
   <v>      -0.03305648      -0.00630125      -0.00000000 </v>
   <v>       0.01776660       0.02099712      -0.00000000 </v>
   <v>      -0.02936279       0.01898246      -0.00000000 </v>
   <v>      -0.02936279       0.01898246      -0.00000000 </v>
   <v>      -0.02936279       0.01898246      -0.00000000 </v>
   <v>      -0.02936279       0.01898246      -0.00000000 </v>
   <v>       0.01776660      -0.02099712      -0.00000000 </v>
   <v>      -0.03305648       0.00630125      -0.00000000 </v>
   <v>       0.01776660      -0.02099712      -0.00000000 </v>
   <v>      -0.03305648       0.00630125      -0.00000000 </v>
   <v>       0.01776660      -0.02099712      -0.00000000 </v>
   <v>      -0.03305648       0.00630125      -0.00000000 </v>
   <v>       0.01776660      -0.02099712      -0.00000000 </v>
   <v>      -0.03305648       0.00630125      -0.00000000 </v>
   <v>      -0.02936279      -0.01898246      -0.00000000 </v>
   <v>      -0.02936279      -0.01898246      -0.00000000 </v>
   <v>      -0.02936279      -0.01898246      -0.00000000 </v>
   <v>      -0.02936279      -0.01898246      -0.00000000 </v>
   <v>       0.01611362      -0.02362800       0.00299074 </v>
   <v>      -0.00535869      -0.01005213      -0.01856171 </v>
   <v>       0.01611362      -0.02362800       0.00299074 </v>
   <v>      -0.00535869      -0.01005213      -0.01856171 </v>
   <v>       0.01611362      -0.02362800       0.00299074 </v>
   <v>      -0.00535869      -0.01005213      -0.01856171 </v>
   <v>       0.01611362      -0.02362800       0.00299074 </v>
   <v>      -0.00535869      -0.01005213      -0.01856171 </v>
   <v>      -0.00535869      -0.01005213       0.01856171 </v>
   <v>       0.01611362      -0.02362800      -0.00299074 </v>
   <v>      -0.00535869      -0.01005213       0.01856171 </v>
   <v>       0.01611362      -0.02362800      -0.00299074 </v>
   <v>      -0.00535869      -0.01005213       0.01856171 </v>
   <v>       0.01611362      -0.02362800      -0.00299074 </v>
   <v>      -0.00535869      -0.01005213       0.01856171 </v>
   <v>       0.01611362      -0.02362800      -0.00299074 </v>
   <v>       0.01611362       0.02362800      -0.00299074 </v>
   <v>      -0.00535869       0.01005213       0.01856171 </v>
   <v>       0.01611362       0.02362800      -0.00299074 </v>
   <v>      -0.00535869       0.01005213       0.01856171 </v>
   <v>       0.01611362       0.02362800      -0.00299074 </v>
   <v>      -0.00535869       0.01005213       0.01856171 </v>
   <v>       0.01611362       0.02362800      -0.00299074 </v>
   <v>      -0.00535869       0.01005213       0.01856171 </v>
   <v>      -0.00535869       0.01005213      -0.01856171 </v>
   <v>       0.01611362       0.02362800       0.00299074 </v>
   <v>      -0.00535869       0.01005213      -0.01856171 </v>
   <v>       0.01611362       0.02362800       0.00299074 </v>
   <v>      -0.00535869       0.01005213      -0.01856171 </v>
   <v>       0.01611362       0.02362800       0.00299074 </v>
   <v>      -0.00535869       0.01005213      -0.01856171 </v>
   <v>       0.01611362       0.02362800       0.00299074 </v>
  </varray>
  <varray name="stress" >
   <v>      -0.69869721       0.00000000       0.00000000 </v>
   <v>       0.00000000      -1.27207529       0.00000000 </v>
   <v>       0.00000000       0.00000000      -0.22850202 </v>
  </varray>
  <energy>
   <i name="e_fr_energy">  -1054.69761595 </i>
   <i name="e_wo_entrp">  -1054.69761595 </i>
   <i name="e_0_energy">     -0.00000000 </i>
  </energy>
  <time name="totalsc">  291.83  293.89</time>
 </calculation>
 <calculation>
  <scstep>
   <time name="dav">   72.38   72.40</time>
   <time name="total">   74.36   74.44</time>
   <energy>
    <i name="alphaZ">   5661.70304178 </i>
    <i name="ewald"> -62946.66746466 </i>
    <i name="hartreedc"> -16775.72960905 </i>
    <i name="XCdc">   3188.38554322 </i>
    <i name="pawpsdc"> 115318.54428688 </i>
    <i name="pawaedc">-114522.33513669 </i>
    <i name="eentropy">     -0.00000000 </i>
    <i name="bandstr">  -7028.77809622 </i>
    <i name="atom">  76050.17612637 </i>
    <i name="e_fr_energy">  -1054.70130837 </i>
    <i name="e_wo_entrp">  -1054.70130837 </i>
    <i name="e_0_energy">  -1054.70130837 </i>
   </energy>
  </scstep>
  <scstep>
   <time name="diag">    8.24    8.25</time>
   <time name="diis">   13.10   13.11</time>
   <time name="orth">    4.69    4.70</time>
   <time name="total">   28.05   28.07</time>
   <energy>
    <i name="e_fr_energy">  -1054.70099552 </i>
    <i name="e_wo_entrp">  -1054.70099552 </i>
    <i name="e_0_energy">  -1054.70099552 </i>
   </energy>
  </scstep>
  <scstep>
   <time name="diag">    8.24    8.25</time>
   <time name="diis">   13.53   13.54</time>
   <time name="orth">    4.69    4.70</time>
   <time name="total">   28.45   28.59</time>
   <energy>
    <i name="e_fr_energy">  -1054.70059896 </i>
    <i name="e_wo_entrp">  -1054.70059896 </i>
    <i name="e_0_energy">  -1054.70059896 </i>
   </energy>
  </scstep>
  <scstep>
   <time name="diag">    8.24    8.24</time>
   <time name="diis">   12.79   12.79</time>
   <time name="orth">    4.71    4.71</time>
   <time name="total">   27.73   27.79</time>
   <energy>
    <i name="e_fr_energy">  -1054.70032607 </i>
    <i name="e_wo_entrp">  -1054.70032607 </i>
    <i name="e_0_energy">  -1054.70032607 </i>
   </energy>
  </scstep>
  <scstep>
   <time name="diag">    8.25    8.25</time>
   <time name="diis">    9.77    9.77</time>
   <time name="orth">    4.71    4.71</time>
   <time name="total">   24.73   24.77</time>
   <energy>
    <i name="e_fr_energy">  -1054.70028251 </i>
    <i name="e_wo_entrp">  -1054.70028251 </i>
    <i name="e_0_energy">  -1054.70028251 </i>
   </energy>
  </scstep>
  <scstep>
   <time name="diag">    8.23    8.24</time>
   <time name="diis">    8.10    8.10</time>
   <time name="orth">    4.70    4.70</time>
   <time name="total">   23.03   23.11</time>
   <energy>
    <i name="e_fr_energy">  -1054.70030233 </i>
    <i name="e_wo_entrp">  -1054.70030233 </i>
    <i name="e_0_energy">  -1054.70030233 </i>
   </energy>
  </scstep>
  <scstep>
   <time name="diag">    8.24    8.25</time>
   <time name="diis">    7.97    7.97</time>
   <time name="orth">    4.70    4.70</time>
   <time name="total">   22.92   22.94</time>
   <energy>
    <i name="e_fr_energy">  -1054.70031726 </i>
    <i name="e_wo_entrp">  -1054.70031726 </i>
    <i name="e_0_energy">  -1054.70031726 </i>
   </energy>
  </scstep>
  <scstep>
   <time name="diag">    8.23    8.23</time>
   <time name="diis">    7.86    7.86</time>
   <time name="orth">    4.70    4.70</time>
   <time name="total">   21.36   21.45</time>
   <energy>
    <i name="alphaZ">   5661.70304178 </i>
    <i name="ewald"> -62946.66746466 </i>
    <i name="hartreedc"> -16763.05289949 </i>
    <i name="XCdc">   3187.51072724 </i>
    <i name="pawpsdc"> 115486.46398884 </i>
    <i name="pawaedc">-114690.37185718 </i>
    <i name="eentropy">     -0.00000000 </i>
    <i name="bandstr">  -7040.46199794 </i>
    <i name="atom">  76050.17612637 </i>
    <i name="e_fr_energy">  -1054.70033505 </i>
    <i name="e_wo_entrp">  -1054.70033505 </i>
    <i name="e_0_energy">  -1054.70033505 </i>
   </energy>
  </scstep>
  <structure>
   <crystal>
    <varray name="basis" >
     <v>      11.29676969       0.00000000       0.00000000 </v>
     <v>       0.00000000      11.27616039       0.00000000 </v>
     <v>       0.00000000       0.00000000      15.61572224 </v>
    </varray>
    <i name="volume">   1989.19607923 </i>
    <varray name="rec_basis" >
     <v>       0.08852088       0.00000000       0.00000000 </v>
     <v>       0.00000000       0.08868267       0.00000000 </v>
     <v>       0.00000000       0.00000000       0.06403802 </v>
    </varray>
   </crystal>
   <varray name="positions" >
    <v>       0.99907303       0.24799069       0.12456622 </v>
    <v>       0.00140402       0.25224045       0.62907293 </v>
    <v>       0.99907303       0.74799069       0.12456622 </v>
    <v>       0.00140402       0.75224045       0.62907293 </v>
    <v>       0.49907303       0.24799069       0.12456622 </v>
    <v>       0.50140402       0.25224045       0.62907293 </v>
    <v>       0.49907303       0.74799069       0.12456622 </v>
    <v>       0.50140402       0.75224045       0.62907293 </v>
    <v>       0.00140402       0.25224045       0.37092707 </v>
    <v>       0.99907303       0.24799069       0.87543378 </v>
    <v>       0.00140402       0.75224045       0.37092707 </v>
    <v>       0.99907303       0.74799069       0.87543378 </v>
    <v>       0.50140402       0.25224045       0.37092707 </v>
    <v>       0.49907303       0.24799069       0.87543378 </v>
    <v>       0.50140402       0.75224045       0.37092707 </v>
    <v>       0.49907303       0.74799069       0.87543378 </v>
    <v>       0.25140402       0.99775955       0.12907293 </v>
    <v>       0.24907303       0.00200931       0.62456622 </v>
    <v>       0.25140402       0.49775955       0.12907293 </v>
    <v>       0.24907303       0.50200931       0.62456622 </v>
    <v>       0.75140402       0.99775955       0.12907293 </v>
    <v>       0.74907303       0.00200931       0.62456622 </v>
    <v>       0.75140402       0.49775955       0.12907293 </v>
    <v>       0.74907303       0.50200931       0.62456622 </v>
    <v>       0.24907303       0.00200931       0.37543378 </v>
    <v>       0.25140402       0.99775955       0.87092707 </v>
    <v>       0.24907303       0.50200931       0.37543378 </v>
    <v>       0.25140402       0.49775955       0.87092707 </v>
    <v>       0.74907303       0.00200931       0.37543378 </v>
    <v>       0.75140402       0.99775955       0.87092707 </v>
    <v>       0.74907303       0.50200931       0.37543378 </v>
    <v>       0.75140402       0.49775955       0.87092707 </v>
    <v>       0.25103536       0.24718470       0.24994906 </v>
    <v>       0.25103536       0.24718470       0.75005094 </v>
    <v>       0.25103536       0.74718470       0.24994906 </v>
    <v>       0.25103536       0.74718470       0.75005094 </v>
    <v>       0.75103536       0.24718470       0.24994906 </v>
    <v>       0.75103536       0.24718470       0.75005094 </v>
    <v>       0.75103536       0.74718470       0.24994906 </v>
    <v>       0.75103536       0.74718470       0.75005094 </v>
    <v>       0.00103536       0.00281530       0.25005094 </v>
    <v>       0.00103536       0.00281530       0.74994906 </v>
    <v>       0.00103536       0.50281530       0.25005094 </v>
    <v>       0.00103536       0.50281530       0.74994906 </v>
    <v>       0.50103536       0.00281530       0.25005094 </v>
    <v>       0.50103536       0.00281530       0.74994906 </v>
    <v>       0.50103536       0.50281530       0.25005094 </v>
    <v>       0.50103536       0.50281530       0.74994906 </v>
    <v>       0.99003857       0.98968533      -0.00000000 </v>
    <v>       0.49003857       0.98968533      -0.00000000 </v>
    <v>       0.75564254       0.26016846      -0.00000000 </v>
    <v>       0.25564254       0.26016846      -0.00000000 </v>
    <v>       0.99003857       0.48968533      -0.00000000 </v>
    <v>       0.49003857       0.48968533      -0.00000000 </v>
    <v>       0.75564254       0.76016846      -0.00000000 </v>
    <v>       0.25564254       0.76016846      -0.00000000 </v>
    <v>       0.00564254       0.98983154       0.50000000 </v>
    <v>       0.50564254       0.98983154       0.50000000 </v>
    <v>       0.24003857       0.26031467       0.50000000 </v>
    <v>       0.74003857       0.26031467       0.50000000 </v>
    <v>       0.00564254       0.48983154       0.50000000 </v>
    <v>       0.50564254       0.48983154       0.50000000 </v>
    <v>       0.24003857       0.76031467       0.50000000 </v>
    <v>       0.74003857       0.76031467       0.50000000 </v>
    <v>       0.12011134       0.13192288       0.25973264 </v>
    <v>       0.12011134       0.13192288       0.74026736 </v>
    <v>       0.12011134       0.63192288       0.25973264 </v>
    <v>       0.12011134       0.63192288       0.74026736 </v>
    <v>       0.62011134       0.13192288       0.25973264 </v>
    <v>       0.62011134       0.13192288       0.74026736 </v>
    <v>       0.62011134       0.63192288       0.25973264 </v>
    <v>       0.62011134       0.63192288       0.74026736 </v>
    <v>       0.38202769       0.36961422       0.23870300 </v>
    <v>       0.38202769       0.36961422       0.76129700 </v>
    <v>       0.38202769       0.86961422       0.23870300 </v>
    <v>       0.38202769       0.86961422       0.76129700 </v>
    <v>       0.88202769       0.36961422       0.23870300 </v>
    <v>       0.88202769       0.36961422       0.76129700 </v>
    <v>       0.88202769       0.86961422       0.23870300 </v>
    <v>       0.88202769       0.86961422       0.76129700 </v>
    <v>       0.37011134       0.11807712       0.24026736 </v>
    <v>       0.37011134       0.11807712       0.75973264 </v>
    <v>       0.37011134       0.61807712       0.24026736 </v>
    <v>       0.37011134       0.61807712       0.75973264 </v>
    <v>       0.87011134       0.11807712       0.24026736 </v>
    <v>       0.87011134       0.11807712       0.75973264 </v>
    <v>       0.87011134       0.61807712       0.24026736 </v>
    <v>       0.87011134       0.61807712       0.75973264 </v>
    <v>       0.13202769       0.38038578       0.26129700 </v>
    <v>       0.13202769       0.38038578       0.73870300 </v>
    <v>       0.13202769       0.88038578       0.26129700 </v>
    <v>       0.13202769       0.88038578       0.73870300 </v>
    <v>       0.63202769       0.38038578       0.26129700 </v>
    <v>       0.63202769       0.38038578       0.73870300 </v>
    <v>       0.63202769       0.88038578       0.26129700 </v>
    <v>       0.63202769       0.88038578       0.73870300 </v>
    <v>       0.35291086       0.39508640      -0.00000000 </v>
    <v>       0.35471470       0.39570095       0.50000000 </v>
    <v>       0.35291086       0.89508640      -0.00000000 </v>
    <v>       0.35471470       0.89570095       0.50000000 </v>
    <v>       0.85291086       0.39508640      -0.00000000 </v>
    <v>       0.85471470       0.39570095       0.50000000 </v>
    <v>       0.85291086       0.89508640      -0.00000000 </v>
    <v>       0.85471470       0.89570095       0.50000000 </v>
    <v>       0.13517460       0.11153078       0.50000000 </v>
    <v>       0.13517460       0.61153078       0.50000000 </v>
    <v>       0.63517460       0.11153078       0.50000000 </v>
    <v>       0.63517460       0.61153078       0.50000000 </v>
    <v>       0.10471470       0.35429905      -0.00000000 </v>
    <v>       0.10291086       0.35491360       0.50000000 </v>
    <v>       0.10471470       0.85429905      -0.00000000 </v>
    <v>       0.10291086       0.85491360       0.50000000 </v>
    <v>       0.60471470       0.35429905      -0.00000000 </v>
    <v>       0.60291086       0.35491360       0.50000000 </v>
    <v>       0.60471470       0.85429905      -0.00000000 </v>
    <v>       0.60291086       0.85491360       0.50000000 </v>
    <v>       0.38517460       0.13846922      -0.00000000 </v>
    <v>       0.38517460       0.63846922      -0.00000000 </v>
    <v>       0.88517460       0.13846922      -0.00000000 </v>
    <v>       0.88517460       0.63846922      -0.00000000 </v>
    <v>       0.02527622       0.01408055       0.12205574 </v>
    <v>       0.98133169       0.01279974       0.62395698 </v>
    <v>       0.02527622       0.51408055       0.12205574 </v>
    <v>       0.98133169       0.51279974       0.62395698 </v>
    <v>       0.52527622       0.01408055       0.12205574 </v>
    <v>       0.48133169       0.01279974       0.62395698 </v>
    <v>       0.52527622       0.51408055       0.12205574 </v>
    <v>       0.48133169       0.51279974       0.62395698 </v>
    <v>       0.98133169       0.01279974       0.37604302 </v>
    <v>       0.02527622       0.01408055       0.87794426 </v>
    <v>       0.98133169       0.51279974       0.37604302 </v>
    <v>       0.02527622       0.51408055       0.87794426 </v>
    <v>       0.48133169       0.01279974       0.37604302 </v>
    <v>       0.52527622       0.01408055       0.87794426 </v>
    <v>       0.48133169       0.51279974       0.37604302 </v>
    <v>       0.52527622       0.51408055       0.87794426 </v>
    <v>       0.27527622       0.23591945       0.37794426 </v>
    <v>       0.23133169       0.23720026       0.87604302 </v>
    <v>       0.27527622       0.73591945       0.37794426 </v>
    <v>       0.23133169       0.73720026       0.87604302 </v>
    <v>       0.77527622       0.23591945       0.37794426 </v>
    <v>       0.73133169       0.23720026       0.87604302 </v>
    <v>       0.77527622       0.73591945       0.37794426 </v>
    <v>       0.73133169       0.73720026       0.87604302 </v>
    <v>       0.23133169       0.23720026       0.12395698 </v>
    <v>       0.27527622       0.23591945       0.62205574 </v>
    <v>       0.23133169       0.73720026       0.12395698 </v>
    <v>       0.27527622       0.73591945       0.62205574 </v>
    <v>       0.73133169       0.23720026       0.12395698 </v>
    <v>       0.77527622       0.23591945       0.62205574 </v>
    <v>       0.73133169       0.73720026       0.12395698 </v>
    <v>       0.77527622       0.73591945       0.62205574 </v>
   </varray>
  </structure>
  <varray name="forces" >
   <v>       0.00495152      -0.00163734       0.00202659 </v>
   <v>       0.00104666      -0.01022040      -0.01834094 </v>
   <v>       0.00495152      -0.00163734       0.00202659 </v>
   <v>       0.00104666      -0.01022040      -0.01834094 </v>
   <v>       0.00495152      -0.00163734       0.00202659 </v>
   <v>       0.00104666      -0.01022040      -0.01834094 </v>
   <v>       0.00495152      -0.00163734       0.00202659 </v>
   <v>       0.00104666      -0.01022040      -0.01834094 </v>
   <v>       0.00104666      -0.01022040       0.01834094 </v>
   <v>       0.00495152      -0.00163734      -0.00202659 </v>
   <v>       0.00104666      -0.01022040       0.01834094 </v>
   <v>       0.00495152      -0.00163734      -0.00202659 </v>
   <v>       0.00104666      -0.01022040       0.01834094 </v>
   <v>       0.00495152      -0.00163734      -0.00202659 </v>
   <v>       0.00104666      -0.01022040       0.01834094 </v>
   <v>       0.00495152      -0.00163734      -0.00202659 </v>
   <v>       0.00104666       0.01022040      -0.01834094 </v>
   <v>       0.00495152       0.00163734       0.00202659 </v>
   <v>       0.00104666       0.01022040      -0.01834094 </v>
   <v>       0.00495152       0.00163734       0.00202659 </v>
   <v>       0.00104666       0.01022040      -0.01834094 </v>
   <v>       0.00495152       0.00163734       0.00202659 </v>
   <v>       0.00104666       0.01022040      -0.01834094 </v>
   <v>       0.00495152       0.00163734       0.00202659 </v>
   <v>       0.00495152       0.00163734      -0.00202659 </v>
   <v>       0.00104666       0.01022040       0.01834094 </v>
   <v>       0.00495152       0.00163734      -0.00202659 </v>
   <v>       0.00104666       0.01022040       0.01834094 </v>
   <v>       0.00495152       0.00163734      -0.00202659 </v>
   <v>       0.00104666       0.01022040       0.01834094 </v>
   <v>       0.00495152       0.00163734      -0.00202659 </v>
   <v>       0.00104666       0.01022040       0.01834094 </v>
   <v>      -0.00772464       0.00892001      -0.01207041 </v>
   <v>      -0.00772464       0.00892001       0.01207041 </v>
   <v>      -0.00772464       0.00892001      -0.01207041 </v>
   <v>      -0.00772464       0.00892001       0.01207041 </v>
   <v>      -0.00772464       0.00892001      -0.01207041 </v>
   <v>      -0.00772464       0.00892001       0.01207041 </v>
   <v>      -0.00772464       0.00892001      -0.01207041 </v>
   <v>      -0.00772464       0.00892001       0.01207041 </v>
   <v>      -0.00772464      -0.00892001       0.01207041 </v>
   <v>      -0.00772464      -0.00892001      -0.01207041 </v>
   <v>      -0.00772464      -0.00892001       0.01207041 </v>
   <v>      -0.00772464      -0.00892001      -0.01207041 </v>
   <v>      -0.00772464      -0.00892001       0.01207041 </v>
   <v>      -0.00772464      -0.00892001      -0.01207041 </v>
   <v>      -0.00772464      -0.00892001       0.01207041 </v>
   <v>      -0.00772464      -0.00892001      -0.01207041 </v>
   <v>      -0.00062958      -0.01703136       0.00000000 </v>
   <v>      -0.00062958      -0.01703136       0.00000000 </v>
   <v>      -0.00587039      -0.01631808       0.00000000 </v>
   <v>      -0.00587039      -0.01631808       0.00000000 </v>
   <v>      -0.00062958      -0.01703136       0.00000000 </v>
   <v>      -0.00062958      -0.01703136       0.00000000 </v>
   <v>      -0.00587039      -0.01631808       0.00000000 </v>
   <v>      -0.00587039      -0.01631808       0.00000000 </v>
   <v>      -0.00587039       0.01631808       0.00000000 </v>
   <v>      -0.00587039       0.01631808       0.00000000 </v>
   <v>      -0.00062958       0.01703136       0.00000000 </v>
   <v>      -0.00062958       0.01703136       0.00000000 </v>
   <v>      -0.00587039       0.01631808       0.00000000 </v>
   <v>      -0.00587039       0.01631808       0.00000000 </v>
   <v>      -0.00062958       0.01703136       0.00000000 </v>
   <v>      -0.00062958       0.01703136       0.00000000 </v>
   <v>       0.00055580      -0.00448434       0.01932170 </v>
   <v>       0.00055580      -0.00448434      -0.01932170 </v>
   <v>       0.00055580      -0.00448434       0.01932170 </v>
   <v>       0.00055580      -0.00448434      -0.01932170 </v>
   <v>       0.00055580      -0.00448434       0.01932170 </v>
   <v>       0.00055580      -0.00448434      -0.01932170 </v>
   <v>       0.00055580      -0.00448434       0.01932170 </v>
   <v>       0.00055580      -0.00448434      -0.01932170 </v>
   <v>      -0.00097863       0.00514005       0.00205012 </v>
   <v>      -0.00097863       0.00514005      -0.00205012 </v>
   <v>      -0.00097863       0.00514005       0.00205012 </v>
   <v>      -0.00097863       0.00514005      -0.00205012 </v>
   <v>      -0.00097863       0.00514005       0.00205012 </v>
   <v>      -0.00097863       0.00514005      -0.00205012 </v>
   <v>      -0.00097863       0.00514005       0.00205012 </v>
   <v>      -0.00097863       0.00514005      -0.00205012 </v>
   <v>       0.00055580       0.00448434      -0.01932170 </v>
   <v>       0.00055580       0.00448434       0.01932170 </v>
   <v>       0.00055580       0.00448434      -0.01932170 </v>
   <v>       0.00055580       0.00448434       0.01932170 </v>
   <v>       0.00055580       0.00448434      -0.01932170 </v>
   <v>       0.00055580       0.00448434       0.01932170 </v>
   <v>       0.00055580       0.00448434      -0.01932170 </v>
   <v>       0.00055580       0.00448434       0.01932170 </v>
   <v>      -0.00097863      -0.00514005      -0.00205012 </v>
   <v>      -0.00097863      -0.00514005       0.00205012 </v>
   <v>      -0.00097863      -0.00514005      -0.00205012 </v>
   <v>      -0.00097863      -0.00514005       0.00205012 </v>
   <v>      -0.00097863      -0.00514005      -0.00205012 </v>
[...]
       <r>   -16.8597     0.0000    32.0000 </r>
       <r>   -16.7070     0.0000    32.0000 </r>
       <r>   -16.5543     0.0000    32.0000 </r>
       <r>   -16.4016     0.0000    32.0000 </r>
       <r>   -16.2488     0.0000    32.0000 </r>
       <r>   -16.0961     0.0000    32.0000 </r>
       <r>   -15.9434     0.0000    32.0000 </r>
       <r>   -15.7907     0.0000    32.0000 </r>
       <r>   -15.6380     0.0000    32.0000 </r>
       <r>   -15.4853     0.0000    32.0000 </r>
       <r>   -15.3326     0.0000    32.0000 </r>
       <r>   -15.1798     0.0086    32.0013 </r>
       <r>   -15.0271    11.8757    33.8149 </r>
       <r>   -14.8744    47.3356    41.0438 </r>
       <r>   -14.7217    33.6670    46.1853 </r>
       <r>   -14.5690    50.3206    53.8700 </r>
       <r>   -14.4163    20.1702    56.9503 </r>
       <r>   -14.2635    51.9305    64.8809 </r>
       <r>   -14.1108    79.0838    76.9582 </r>
       <r>   -13.9581   101.1454    92.4047 </r>
       <r>   -13.8054    74.7415   103.8189 </r>
       <r>   -13.6527    11.4733   105.5710 </r>
       <r>   -13.5000    41.6908   111.9378 </r>
       <r>   -13.3472    36.1481   117.4582 </r>
       <r>   -13.1945    16.6374   119.9990 </r>
       <r>   -13.0418     0.0065   120.0000 </r>
       <r>   -12.8891     0.0000   120.0000 </r>
       <r>   -12.7364     0.0115   120.0018 </r>
       <r>   -12.5837    18.6368   122.8479 </r>
       <r>   -12.4310    96.4762   137.5813 </r>
       <r>   -12.2782   144.4520   159.6414 </r>
       <r>   -12.1255   117.3724   177.5660 </r>
       <r>   -11.9728   109.9518   194.3573 </r>
       <r>   -11.8201    93.8719   208.6930 </r>
       <r>   -11.6674    47.2616   215.9106 </r>
       <r>   -11.5147     0.5855   216.0000 </r>
       <r>   -11.3619     0.0000   216.0000 </r>
       <r>   -11.2092     0.0000   216.0000 </r>
       <r>   -11.0565     0.0000   216.0000 </r>
       <r>   -10.9038     0.0000   216.0000 </r>
       <r>   -10.7511     0.0000   216.0000 </r>
       <r>   -10.5984     0.0000   216.0000 </r>
       <r>   -10.4457     0.0000   216.0000 </r>
       <r>   -10.2929     0.0000   216.0000 </r>
       <r>   -10.1402     0.0000   216.0000 </r>
       <r>    -9.9875     0.0000   216.0000 </r>
       <r>    -9.8348     0.0000   216.0000 </r>
       <r>    -9.6821     0.0000   216.0000 </r>
       <r>    -9.5294     0.0000   216.0000 </r>
       <r>    -9.3766     0.0000   216.0000 </r>
       <r>    -9.2239     0.0000   216.0000 </r>
       <r>    -9.0712     0.0000   216.0000 </r>
       <r>    -8.9185     0.0000   216.0000 </r>
       <r>    -8.7658     0.0000   216.0000 </r>
       <r>    -8.6131     0.0000   216.0000 </r>
       <r>    -8.4604     0.0000   216.0000 </r>
       <r>    -8.3076     0.0000   216.0000 </r>
       <r>    -8.1549     0.0000   216.0000 </r>
       <r>    -8.0022     0.0000   216.0000 </r>
       <r>    -7.8495     0.0000   216.0000 </r>
       <r>    -7.6968     0.0000   216.0000 </r>
       <r>    -7.5441     0.0000   216.0000 </r>
       <r>    -7.3913     0.0000   216.0000 </r>
       <r>    -7.2386     0.0000   216.0000 </r>
       <r>    -7.0859     0.0000   216.0000 </r>
       <r>    -6.9332     0.0000   216.0000 </r>
       <r>    -6.7805     0.0000   216.0000 </r>
       <r>    -6.6278     0.0000   216.0000 </r>
       <r>    -6.4750     0.0000   216.0000 </r>
       <r>    -6.3223     0.0000   216.0000 </r>
       <r>    -6.1696     0.0000   216.0000 </r>
       <r>    -6.0169     0.0000   216.0000 </r>
       <r>    -5.8642     0.0000   216.0000 </r>
       <r>    -5.7115     0.0000   216.0000 </r>
       <r>    -5.5588     0.0000   216.0000 </r>
       <r>    -5.4060     0.0000   216.0000 </r>
       <r>    -5.2533     0.0000   216.0000 </r>
       <r>    -5.1006     0.0000   216.0000 </r>
       <r>    -4.9479     0.0000   216.0000 </r>
       <r>    -4.7952     0.0000   216.0000 </r>
       <r>    -4.6425     0.0000   216.0000 </r>
       <r>    -4.4897     0.0000   216.0000 </r>
       <r>    -4.3370     0.0000   216.0000 </r>
       <r>    -4.1843     0.0000   216.0000 </r>
       <r>    -4.0316     0.0000   216.0000 </r>
       <r>    -3.8789     0.0000   216.0000 </r>
       <r>    -3.7262     0.0000   216.0000 </r>
       <r>    -3.5735     0.0000   216.0000 </r>
       <r>    -3.4207     0.0000   216.0000 </r>
       <r>    -3.2680     0.0000   216.0000 </r>
       <r>    -3.1153     0.0000   216.0000 </r>
       <r>    -2.9626     0.0000   216.0000 </r>
       <r>    -2.8099     0.0000   216.0000 </r>
       <r>    -2.6572     0.0000   216.0000 </r>
       <r>    -2.5044     0.0000   216.0000 </r>
       <r>    -2.3517     0.2586   216.0395 </r>
       <r>    -2.1990     8.8521   217.3913 </r>
       <r>    -2.0463    30.3913   222.0326 </r>
       <r>    -1.8936    37.2249   227.7174 </r>
       <r>    -1.7409    38.4956   233.5963 </r>
       <r>    -1.5882    36.3508   239.1476 </r>
       <r>    -1.4354    41.4003   245.4701 </r>
       <r>    -1.2827    41.0117   251.7332 </r>
       <r>    -1.1300    80.8103   264.0742 </r>
       <r>    -0.9773    71.4854   274.9911 </r>
       <r>    -0.8246    62.0897   284.4732 </r>
       <r>    -0.6719    75.8862   296.0622 </r>
       <r>    -0.5191   108.8917   312.6916 </r>
       <r>    -0.3664    71.4568   323.6042 </r>
       <r>    -0.2137    72.7340   334.7118 </r>
       <r>    -0.0610    64.2293   344.5206 </r>
       <r>     0.0917    69.2031   355.0890 </r>
       <r>     0.2444    59.3503   364.1527 </r>
       <r>     0.3972    42.0737   370.5780 </r>
       <r>     0.5499    33.2419   375.6546 </r>
       <r>     0.7026    60.6227   384.9126 </r>
       <r>     0.8553    51.2385   392.7375 </r>
       <r>     1.0080    54.6137   401.0779 </r>
       <r>     1.1607    56.6347   409.7269 </r>
       <r>     1.3134    98.7692   424.8105 </r>
       <r>     1.4662    50.9072   432.5848 </r>
       <r>     1.6189    80.6223   444.8971 </r>
       <r>     1.7716    56.5641   453.5353 </r>
       <r>     1.9243    66.8183   463.7395 </r>
       <r>     2.0770    47.9221   471.0580 </r>
       <r>     2.2297    16.3543   473.5555 </r>
       <r>     2.3825    16.5924   476.0894 </r>
       <r>     2.5352    25.0765   479.9190 </r>
       <r>     2.6879     0.5304   480.0000 </r>
       <r>     2.8406     0.0000   480.0000 </r>
       <r>     2.9933     0.0000   480.0000 </r>
       <r>     3.1460     0.0000   480.0000 </r>
       <r>     3.2987     0.0000   480.0000 </r>
       <r>     3.4515     0.0000   480.0000 </r>
       <r>     3.6042     0.0000   480.0000 </r>
       <r>     3.7569     0.0000   480.0000 </r>
       <r>     3.9096     0.0000   480.0000 </r>
       <r>     4.0623     1.5203   480.2322 </r>
       <r>     4.2150     9.7753   481.7250 </r>
       <r>     4.3678    17.7368   484.4337 </r>
       <r>     4.5205    14.1905   486.6008 </r>
       <r>     4.6732    49.9256   494.2252 </r>
       <r>     4.8259    68.2782   504.6524 </r>
       <r>     4.9786    36.0840   510.1629 </r>
       <r>     5.1313    41.3261   516.4741 </r>
       <r>     5.2840    73.6294   527.7184 </r>
       <r>     5.4368    67.6574   538.0508 </r>
       <r>     5.5895    80.4284   550.3334 </r>
       <r>     5.7422    90.7625   564.1943 </r>
       <r>     5.8949    80.3815   576.4698 </r>
       <r>     6.0476    98.0914   591.4499 </r>
       <r>     6.2003    46.3648   598.5305 </r>
       <r>     6.3531    39.5022   604.5631 </r>
       <r>     6.5058    32.4458   609.5181 </r>
       <r>     6.6585     9.9668   611.0402 </r>
       <r>     6.8112    34.4560   616.3021 </r>
       <r>     6.9639    11.1255   618.0012 </r>
       <r>     7.1166     8.5673   619.3095 </r>
       <r>     7.2694    16.8179   621.8779 </r>
       <r>     7.4221     2.8506   622.3132 </r>
       <r>     7.5748    17.9202   625.0499 </r>
       <r>     7.7275    21.7980   628.3788 </r>
       <r>     7.8802    22.3297   631.7889 </r>
       <r>     8.0329    13.4029   633.8357 </r>
       <r>     8.1856    14.2124   636.0062 </r>
       <r>     8.3384    22.9477   639.5106 </r>
       <r>     8.4911    43.1450   646.0996 </r>
       <r>     8.6438    17.8981   648.8329 </r>
       <r>     8.7965    17.4519   651.4981 </r>
       <r>     8.9492    14.0430   653.6426 </r>
       <r>     9.1019    36.9498   659.2855 </r>
       <r>     9.2547    41.4856   665.6210 </r>
       <r>     9.4074    30.3094   670.2497 </r>
       <r>     9.5601    39.0900   676.2193 </r>
       <r>     9.7128    50.2950   683.9001 </r>
       <r>     9.8655    52.1315   691.8614 </r>
       <r>    10.0182    65.6403   701.8857 </r>
       <r>    10.1709    75.5507   713.4235 </r>
       <r>    10.3237    48.6342   720.8507 </r>
       <r>    10.4764    48.0020   728.1813 </r>
       <r>    10.6291    57.1150   736.9037 </r>
       <r>    10.7818    56.3691   745.5121 </r>
       <r>    10.9345    55.5458   753.9948 </r>
       <r>    11.0872    59.6174   763.0993 </r>
       <r>    11.2400    32.0564   767.9949 </r>
       <r>    11.3927     0.0336   768.0000 </r>
       <r>    11.5454     0.0000   768.0000 </r>
       <r>    11.6981     0.0000   768.0000 </r>
       <r>    11.8508     0.0000   768.0000 </r>
       <r>    12.0035     0.0000   768.0000 </r>
       <r>    12.1562     0.0000   768.0000 </r>
       <r>    12.3090     0.0000   768.0000 </r>
       <r>    12.4617     0.0000   768.0000 </r>
       <r>    12.6144     0.0000   768.0000 </r>
       <r>    12.7671     0.0000   768.0000 </r>
       <r>    12.9198     0.0000   768.0000 </r>
       <r>    13.0725     0.0000   768.0000 </r>
       <r>    13.2253     0.0000   768.0000 </r>
      </set>
     </set>
    </array>
   </total>
  </dos>
 </calculation>
 <structure name="finalpos" >
  <crystal>
   <varray name="basis" >
    <v>      11.29677661       0.00000000       0.00000000 </v>
    <v>       0.00000000      11.27406419       0.00000000 </v>
    <v>       0.00000000       0.00000000      15.61825865 </v>
   </varray>
   <i name="volume">   1989.15055295 </i>
   <varray name="rec_basis" >
    <v>       0.08852083       0.00000000       0.00000000 </v>
    <v>       0.00000000       0.08869916       0.00000000 </v>
    <v>       0.00000000       0.00000000       0.06402762 </v>
   </varray>
  </crystal>
  <varray name="positions" >
   <v>       0.99911530       0.24796880       0.12457788 </v>
   <v>       0.00140248       0.25216712       0.62899431 </v>
   <v>       0.99911530       0.74796880       0.12457788 </v>
   <v>       0.00140248       0.75216712       0.62899431 </v>
   <v>       0.49911530       0.24796880       0.12457788 </v>
   <v>       0.50140248       0.25216712       0.62899431 </v>
   <v>       0.49911530       0.74796880       0.12457788 </v>
   <v>       0.50140248       0.75216712       0.62899431 </v>
   <v>       0.00140248       0.25216712       0.37100569 </v>
   <v>       0.99911530       0.24796880       0.87542212 </v>
   <v>       0.00140248       0.75216712       0.37100569 </v>
   <v>       0.99911530       0.74796880       0.87542212 </v>
   <v>       0.50140248       0.25216712       0.37100569 </v>
   <v>       0.49911530       0.24796880       0.87542212 </v>
   <v>       0.50140248       0.75216712       0.37100569 </v>
   <v>       0.49911530       0.74796880       0.87542212 </v>
   <v>       0.25140248       0.99783288       0.12899431 </v>
   <v>       0.24911530       0.00203120       0.62457788 </v>
   <v>       0.25140248       0.49783288       0.12899431 </v>
   <v>       0.24911530       0.50203120       0.62457788 </v>
   <v>       0.75140248       0.99783288       0.12899431 </v>
   <v>       0.74911530       0.00203120       0.62457788 </v>
   <v>       0.75140248       0.49783288       0.12899431 </v>
   <v>       0.74911530       0.50203120       0.62457788 </v>
   <v>       0.24911530       0.00203120       0.37542212 </v>
   <v>       0.25140248       0.99783288       0.87100569 </v>
   <v>       0.24911530       0.50203120       0.37542212 </v>
   <v>       0.25140248       0.49783288       0.87100569 </v>
   <v>       0.74911530       0.00203120       0.37542212 </v>
   <v>       0.75140248       0.99783288       0.87100569 </v>
   <v>       0.74911530       0.50203120       0.37542212 </v>
   <v>       0.75140248       0.49783288       0.87100569 </v>
   <v>       0.25097439       0.24722124       0.24992985 </v>
   <v>       0.25097439       0.24722124       0.75007015 </v>
   <v>       0.25097439       0.74722124       0.24992985 </v>
   <v>       0.25097439       0.74722124       0.75007015 </v>
   <v>       0.75097439       0.24722124       0.24992985 </v>
   <v>       0.75097439       0.24722124       0.75007015 </v>
   <v>       0.75097439       0.74722124       0.24992985 </v>
   <v>       0.75097439       0.74722124       0.75007015 </v>
   <v>       0.00097439       0.00277876       0.25007015 </v>
   <v>       0.00097439       0.00277876       0.74992985 </v>
   <v>       0.00097439       0.50277876       0.25007015 </v>
   <v>       0.00097439       0.50277876       0.74992985 </v>
   <v>       0.50097439       0.00277876       0.25007015 </v>
   <v>       0.50097439       0.00277876       0.74992985 </v>
   <v>       0.50097439       0.50277876       0.25007015 </v>
   <v>       0.50097439       0.50277876       0.74992985 </v>
   <v>       0.99012442       0.98961453      -0.00000000 </v>
   <v>       0.49012442       0.98961453      -0.00000000 </v>
   <v>       0.75563015       0.26016281      -0.00000000 </v>
   <v>       0.25563015       0.26016281      -0.00000000 </v>
   <v>       0.99012442       0.48961453      -0.00000000 </v>
   <v>       0.49012442       0.48961453      -0.00000000 </v>
   <v>       0.75563015       0.76016281      -0.00000000 </v>
   <v>       0.25563015       0.76016281      -0.00000000 </v>
   <v>       0.00563015       0.98983719       0.50000000 </v>
   <v>       0.50563015       0.98983719       0.50000000 </v>
   <v>       0.24012442       0.26038547       0.50000000 </v>
   <v>       0.74012442       0.26038547       0.50000000 </v>
   <v>       0.00563015       0.48983719       0.50000000 </v>
   <v>       0.50563015       0.48983719       0.50000000 </v>
   <v>       0.24012442       0.76038547       0.50000000 </v>
   <v>       0.74012442       0.76038547       0.50000000 </v>
   <v>       0.12011284       0.13187691       0.25983446 </v>
   <v>       0.12011284       0.13187691       0.74016554 </v>
   <v>       0.12011284       0.63187691       0.25983446 </v>
   <v>       0.12011284       0.63187691       0.74016554 </v>
   <v>       0.62011284       0.13187691       0.25983446 </v>
   <v>       0.62011284       0.13187691       0.74016554 </v>
   <v>       0.62011284       0.63187691       0.25983446 </v>
   <v>       0.62011284       0.63187691       0.74016554 </v>
   <v>       0.38202159       0.36962950       0.23871599 </v>
   <v>       0.38202159       0.36962950       0.76128401 </v>
   <v>       0.38202159       0.86962950       0.23871599 </v>
   <v>       0.38202159       0.86962950       0.76128401 </v>
   <v>       0.88202159       0.36962950       0.23871599 </v>
   <v>       0.88202159       0.36962950       0.76128401 </v>
   <v>       0.88202159       0.86962950       0.23871599 </v>
   <v>       0.88202159       0.86962950       0.76128401 </v>
   <v>       0.37011284       0.11812309       0.24016554 </v>
   <v>       0.37011284       0.11812309       0.75983446 </v>
   <v>       0.37011284       0.61812309       0.24016554 </v>
   <v>       0.37011284       0.61812309       0.75983446 </v>
   <v>       0.87011284       0.11812309       0.24016554 </v>
   <v>       0.87011284       0.11812309       0.75983446 </v>
   <v>       0.87011284       0.61812309       0.24016554 </v>
   <v>       0.87011284       0.61812309       0.75983446 </v>
   <v>       0.13202159       0.38037050       0.26128401 </v>
   <v>       0.13202159       0.38037050       0.73871599 </v>
   <v>       0.13202159       0.88037050       0.26128401 </v>
   <v>       0.13202159       0.88037050       0.73871599 </v>
   <v>       0.63202159       0.38037050       0.26128401 </v>
   <v>       0.63202159       0.38037050       0.73871599 </v>
   <v>       0.63202159       0.88037050       0.26128401 </v>
   <v>       0.63202159       0.88037050       0.73871599 </v>
   <v>       0.35289120       0.39520044      -0.00000000 </v>
   <v>       0.35472835       0.39577263       0.50000000 </v>
   <v>       0.35289120       0.89520044      -0.00000000 </v>
   <v>       0.35472835       0.89577263       0.50000000 </v>
   <v>       0.85289120       0.39520044      -0.00000000 </v>
   <v>       0.85472835       0.39577263       0.50000000 </v>
   <v>       0.85289120       0.89520044      -0.00000000 </v>
   <v>       0.85472835       0.89577263       0.50000000 </v>
   <v>       0.13506041       0.11169535       0.50000000 </v>
   <v>       0.13506041       0.61169535       0.50000000 </v>
   <v>       0.63506041       0.11169535       0.50000000 </v>
   <v>       0.63506041       0.61169535       0.50000000 </v>
   <v>       0.10472835       0.35422737      -0.00000000 </v>
   <v>       0.10289120       0.35479956       0.50000000 </v>
   <v>       0.10472835       0.85422737      -0.00000000 </v>
   <v>       0.10289120       0.85479956       0.50000000 </v>
   <v>       0.60472835       0.35422737      -0.00000000 </v>
   <v>       0.60289120       0.35479956       0.50000000 </v>
   <v>       0.60472835       0.85422737      -0.00000000 </v>
   <v>       0.60289120       0.85479956       0.50000000 </v>
   <v>       0.38506041       0.13830465      -0.00000000 </v>
   <v>       0.38506041       0.63830465      -0.00000000 </v>
   <v>       0.88506041       0.13830465      -0.00000000 </v>
   <v>       0.88506041       0.63830465      -0.00000000 </v>
   <v>       0.02536350       0.01394446       0.12205609 </v>
   <v>       0.98129262       0.01275973       0.62394940 </v>
   <v>       0.02536350       0.51394446       0.12205609 </v>
   <v>       0.98129262       0.51275973       0.62394940 </v>
   <v>       0.52536350       0.01394446       0.12205609 </v>
   <v>       0.48129262       0.01275973       0.62394940 </v>
   <v>       0.52536350       0.51394446       0.12205609 </v>
   <v>       0.48129262       0.51275973       0.62394940 </v>
   <v>       0.98129262       0.01275973       0.37605060 </v>
   <v>       0.02536350       0.01394446       0.87794391 </v>
   <v>       0.98129262       0.51275973       0.37605060 </v>
   <v>       0.02536350       0.51394446       0.87794391 </v>
   <v>       0.48129262       0.01275973       0.37605060 </v>
   <v>       0.52536350       0.01394446       0.87794391 </v>
   <v>       0.48129262       0.51275973       0.37605060 </v>
   <v>       0.52536350       0.51394446       0.87794391 </v>
   <v>       0.27536350       0.23605554       0.37794391 </v>
   <v>       0.23129262       0.23724027       0.87605060 </v>
   <v>       0.27536350       0.73605554       0.37794391 </v>
   <v>       0.23129262       0.73724027       0.87605060 </v>
   <v>       0.77536350       0.23605554       0.37794391 </v>
   <v>       0.73129262       0.23724027       0.87605060 </v>
   <v>       0.77536350       0.73605554       0.37794391 </v>
   <v>       0.73129262       0.73724027       0.87605060 </v>
   <v>       0.23129262       0.23724027       0.12394940 </v>
   <v>       0.27536350       0.23605554       0.62205609 </v>
   <v>       0.23129262       0.73724027       0.12394940 </v>
   <v>       0.27536350       0.73605554       0.62205609 </v>
   <v>       0.73129262       0.23724027       0.12394940 </v>
   <v>       0.77536350       0.23605554       0.62205609 </v>
   <v>       0.73129262       0.73724027       0.12394940 </v>
   <v>       0.77536350       0.73605554       0.62205609 </v>
  </varray>
 </structure>
</modeling>
