<?xml version="1.0" encoding="ISO-8859-1"?>
<modeling>
 <generator>
  <i name="program" type="string">vasp </i>
  <i name="version" type="string">5.4.1  </i>
  <i name="subversion" type="string">05Feb16 (build Jan 25 2017 20:16:33) complex                          parallel </i>
  <i name="platform" type="string">BWXE6 </i>
  <i name="date" type="string">2019 07 18 </i>
  <i name="time" type="string">23:09:00 </i>
 </generator>
 <incar>
  <i type="string" name="SYSTEM"> STF</i>
  <i type="string" name="PREC">normal</i>
  <i type="string" name="ALGO"> Fast</i>
  <i type="int" name="ISPIN">     2</i>
  <i type="int" name="NELM">    40</i>
  <i type="int" name="NELMIN">     8</i>
  <i type="int" name="IBRION">     2</i>
  <i name="EDIFF">      0.00010000</i>
  <i name="EDIFFG">     -0.03000000</i>
  <i type="int" name="NSW">    30</i>
  <i type="int" name="ISIF">     3</i>
  <i name="ENCUT">    520.00000000</i>
  <i type="int" name="NBANDS">   768</i>
  <v name="MAGMOM">      0.60000000      0.60000000      0.60000000      0.60000000      0.60000000      0.60000000      0.60000000      0.60000000      0.60000000      0.60000000      0.60000000      0.60000000      0.60000000      0.60000000      0.60000000      0.60000000      0.60000000      0.60000000      0.60000000      0.60000000
      0.60000000      0.60000000      0.60000000      0.60000000      0.60000000      0.60000000      0.60000000      0.60000000      0.60000000      0.60000000      0.60000000      0.60000000      0.60000000      0.60000000      0.60000000      0.60000000      0.60000000      0.60000000      0.60000000      0.60000000
      5.00000000      5.00000000      5.00000000      5.00000000      5.00000000      5.00000000      5.00000000      5.00000000      5.00000000      5.00000000      5.00000000      5.00000000      5.00000000      5.00000000      5.00000000      5.00000000      5.00000000      5.00000000      5.00000000      5.00000000
      5.00000000      5.00000000      5.00000000      5.00000000      0.60000000      0.60000000      0.60000000      0.60000000      0.60000000      0.60000000      0.60000000      0.60000000      0.60000000      0.60000000      0.60000000      0.60000000      0.60000000      0.60000000      0.60000000      0.60000000
      0.60000000      0.60000000      0.60000000      0.60000000      0.60000000      0.60000000      0.60000000      0.60000000      0.60000000      0.60000000      0.60000000      0.60000000      0.60000000      0.60000000      0.60000000      0.60000000      0.60000000      0.60000000      0.60000000      0.60000000
      0.60000000      0.60000000      0.60000000      0.60000000      0.60000000      0.60000000      0.60000000      0.60000000      0.60000000      0.60000000      0.60000000      0.60000000      0.60000000      0.60000000      0.60000000      0.60000000      0.60000000      0.60000000      0.60000000      0.60000000
      0.60000000      0.60000000      0.60000000      0.60000000      0.60000000      0.60000000      0.60000000      0.60000000      0.60000000      0.60000000      0.60000000      0.60000000      0.60000000      0.60000000      0.60000000      0.60000000      0.60000000      0.60000000      0.60000000      0.60000000
      0.60000000      0.60000000      0.60000000      0.60000000      0.60000000      0.60000000      0.60000000      0.60000000</v>
  <i type="string" name="LREAL"> Auto</i>
  <i type="int" name="ISMEAR">     0</i>
  <i name="SIGMA">      0.05000000</i>
  <i type="int" name="LMAXMIX">     4</i>
  <v type="int" name="KPOINT_BSE">    -1     0     0     0</v>
  <i type="int" name="NELM">    40</i>
  <i type="logical" name="LDAU"> T  </i>
  <v type="int" name="LDAUTYPE">     2</v>
  <v type="int" name="LDAUL">     0     2     2     0</v>
  <v name="LDAUU">      0.00000000      3.00000000      5.00000000      0.00000000</v>
  <v name="LDAUJ">      0.00000000      0.00000000      0.00000000      0.00000000</v>
  <i type="int" name="LDAUPRINT">     1</i>
 </incar>
 <kpoints>
  <generation param="Monkhorst-Pack">
   <v type="int" name="divisions">       2        2        2 </v>
   <v name="usershift">      0.00000000       0.00000000       0.00000000 </v>
   <v name="genvec1">      0.50000000       0.00000000       0.00000000 </v>
   <v name="genvec2">      0.00000000       0.50000000       0.00000000 </v>
   <v name="genvec3">      0.00000000       0.00000000       0.50000000 </v>
   <v name="shift">      0.50000000       0.50000000       0.50000000 </v>
  </generation>
  <varray name="kpointlist" >
   <v>       0.25000000       0.25000000       0.25000000 </v>
   <v>      -0.25000000       0.25000000       0.25000000 </v>
   <v>       0.25000000      -0.25000000       0.25000000 </v>
   <v>      -0.25000000      -0.25000000       0.25000000 </v>
  </varray>
  <varray name="weights" >
   <v>       0.25000000 </v>
   <v>       0.25000000 </v>
   <v>       0.25000000 </v>
   <v>       0.25000000 </v>
  </varray>
 </kpoints>
 <parameters>
  <separator name="general" >
   <i type="string" name="SYSTEM">STF</i>
   <i type="logical" name="LCOMPAT"> F  </i>
  </separator>
  <separator name="electronic" >
   <i type="string" name="PREC">normal</i>
   <i name="ENMAX">    520.00000000</i>
   <i name="ENAUG">    605.39200000</i>
   <i name="EDIFF">      0.00010000</i>
   <i type="int" name="IALGO">    68</i>
   <i type="int" name="IWAVPR">    11</i>
   <i type="int" name="NBANDS">   768</i>
   <i name="NELECT">   1048.00000000</i>
   <i type="int" name="TURBO">     0</i>
   <i type="int" name="IRESTART">     0</i>
   <i type="int" name="NREBOOT">     0</i>
   <i type="int" name="NMIN">     0</i>
   <i name="EREF">      0.00000000</i>
   <separator name="electronic smearing" >
    <i type="int" name="ISMEAR">     0</i>
    <i name="SIGMA">      0.05000000</i>
    <i name="KSPACING">      0.50000000</i>
    <i type="logical" name="KGAMMA"> T  </i>
   </separator>
   <separator name="electronic projectors" >
    <i type="logical" name="LREAL"> T  </i>
    <v name="ROPT">     -0.00050000     -0.00050000     -0.00050000     -0.00050000</v>
    <i type="int" name="LMAXPAW">  -100</i>
    <i type="int" name="LMAXMIX">     4</i>
    <i type="logical" name="NLSPLINE"> F  </i>
   </separator>
   <separator name="electronic startup" >
    <i type="int" name="ISTART">     1</i>
    <i type="int" name="ICHARG">     0</i>
    <i type="int" name="INIWAV">     1</i>
   </separator>
   <separator name="electronic spin" >
    <i type="int" name="ISPIN">     2</i>
    <i type="logical" name="LNONCOLLINEAR"> F  </i>
    <v name="MAGMOM">      0.60000000      0.60000000      0.60000000      0.60000000      0.60000000      0.60000000      0.60000000      0.60000000      0.60000000      0.60000000      0.60000000      0.60000000      0.60000000      0.60000000      0.60000000      0.60000000      0.60000000      0.60000000      0.60000000      0.60000000
      0.60000000      0.60000000      0.60000000      0.60000000      0.60000000      0.60000000      0.60000000      0.60000000      0.60000000      0.60000000      0.60000000      0.60000000      0.60000000      0.60000000      0.60000000      0.60000000      0.60000000      0.60000000      0.60000000      0.60000000
      5.00000000      5.00000000      5.00000000      5.00000000      5.00000000      5.00000000      5.00000000      5.00000000      5.00000000      5.00000000      5.00000000      5.00000000      5.00000000      5.00000000      5.00000000      5.00000000      5.00000000      5.00000000      5.00000000      5.00000000
      5.00000000      5.00000000      5.00000000      5.00000000      0.60000000      0.60000000      0.60000000      0.60000000      0.60000000      0.60000000      0.60000000      0.60000000      0.60000000      0.60000000      0.60000000      0.60000000      0.60000000      0.60000000      0.60000000      0.60000000
      0.60000000      0.60000000      0.60000000      0.60000000      0.60000000      0.60000000      0.60000000      0.60000000      0.60000000      0.60000000      0.60000000      0.60000000      0.60000000      0.60000000      0.60000000      0.60000000      0.60000000      0.60000000      0.60000000      0.60000000
      0.60000000      0.60000000      0.60000000      0.60000000      0.60000000      0.60000000      0.60000000      0.60000000      0.60000000      0.60000000      0.60000000      0.60000000      0.60000000      0.60000000      0.60000000      0.60000000      0.60000000      0.60000000      0.60000000      0.60000000
      0.60000000      0.60000000      0.60000000      0.60000000      0.60000000      0.60000000      0.60000000      0.60000000      0.60000000      0.60000000      0.60000000      0.60000000      0.60000000      0.60000000      0.60000000      0.60000000      0.60000000      0.60000000      0.60000000      0.60000000
      0.60000000      0.60000000      0.60000000      0.60000000      0.60000000      0.60000000      0.60000000      0.60000000</v>
    <i name="NUPDOWN">     -1.00000000</i>
    <i type="logical" name="LSORBIT"> F  </i>
    <v name="SAXIS">      0.00000000      0.00000000      1.00000000</v>
    <i type="logical" name="LSPIRAL"> F  </i>
    <v name="QSPIRAL">      0.00000000      0.00000000      0.00000000</v>
    <i type="logical" name="LZEROZ"> F  </i>
   </separator>
   <separator name="electronic exchange-correlation" >
    <i type="logical" name="LASPH"> F  </i>
    <i type="logical" name="LMETAGGA"> F  </i>
   </separator>
   <separator name="electronic convergence" >
    <i type="int" name="NELM">    40</i>
    <i type="int" name="NELMDL">     0</i>
    <i type="int" name="NELMIN">     8</i>
    <i name="ENINI">    520.00000000</i>
    <separator name="electronic convergence detail" >
     <i type="logical" name="LDIAG"> T  </i>
     <i type="logical" name="LSUBROT"> F  </i>
     <i name="WEIMIN">      0.00100000</i>
     <i name="EBREAK">      0.00000003</i>
     <i name="DEPER">      0.30000000</i>
     <i type="int" name="NRMM">     4</i>
     <i name="TIME">      0.40000000</i>
    </separator>
   </separator>
   <separator name="electronic mixer" >
    <i name="AMIX">      0.40000000</i>
    <i name="BMIX">      1.00000000</i>
    <i name="AMIN">      0.10000000</i>
    <i name="AMIX_MAG">      1.60000000</i>
    <i name="BMIX_MAG">      1.00000000</i>
    <separator name="electronic mixer details" >
     <i type="int" name="IMIX">     4</i>
     <i type="logical" name="MIXFIRST"> F  </i>
     <i type="int" name="MAXMIX">   -45</i>
     <i name="WC">    100.00000000</i>
     <i type="int" name="INIMIX">     1</i>
     <i type="int" name="MIXPRE">     1</i>
     <i type="int" name="MREMOVE">     5</i>
    </separator>
   </separator>
   <separator name="electronic dipolcorrection" >
    <i type="logical" name="LDIPOL"> F  </i>
    <i type="logical" name="LMONO"> F  </i>
    <i type="int" name="IDIPOL">     0</i>
    <i name="EPSILON">      1.00000000</i>
    <v name="DIPOL">   -100.00000000   -100.00000000   -100.00000000</v>
    <i name="EFIELD">      0.00000000</i>
   </separator>
  </separator>
  <separator name="grids" >
   <i type="int" name="NGX">    64</i>
   <i type="int" name="NGY">    64</i>
   <i type="int" name="NGZ">    90</i>
   <i type="int" name="NGXF">   128</i>
   <i type="int" name="NGYF">   128</i>
   <i type="int" name="NGZF">   180</i>
   <i type="logical" name="ADDGRID"> F  </i>
  </separator>
  <separator name="ionic" >
   <i type="int" name="NSW">    30</i>
   <i type="int" name="IBRION">     2</i>
   <i type="int" name="ISIF">     3</i>
   <i name="PSTRESS">      0.00000000</i>
   <i name="EDIFFG">     -0.03000000</i>
   <i type="int" name="NFREE">     1</i>
   <i name="POTIM">      0.50000000</i>
   <i name="SMASS">     -3.00000000</i>
   <i name="SCALEE">      1.00000000</i>
  </separator>
  <separator name="ionic md" >
   <i name="TEBEG">      0.00010000</i>
   <i name="TEEND">      0.00010000</i>
   <i type="int" name="NBLOCK">     1</i>
   <i type="int" name="KBLOCK">    30</i>
   <i type="int" name="NPACO">   256</i>
   <i name="APACO">     16.00000000</i>
  </separator>
  <separator name="symmetry" >
   <i type="int" name="ISYM">     2</i>
   <i name="SYMPREC">      0.00001000</i>
  </separator>
  <separator name="dos" >
   <i type="logical" name="LORBIT"> F  </i>
   <v name="RWIGS">     -1.00000000     -1.00000000     -1.00000000     -1.00000000</v>
   <i type="int" name="NEDOS">   301</i>
   <i name="EMIN">     10.00000000</i>
   <i name="EMAX">    -10.00000000</i>
   <i name="EFERMI">      0.00000000</i>
  </separator>
  <separator name="writing" >
   <i type="int" name="NWRITE">     2</i>
   <i type="logical" name="LWAVE"> T  </i>
   <i type="logical" name="LCHARG"> T  </i>
   <i type="logical" name="LPARD"> F  </i>
   <i type="logical" name="LVTOT"> F  </i>
   <i type="logical" name="LVHAR"> F  </i>
   <i type="logical" name="LELF"> F  </i>
   <i type="logical" name="LOPTICS"> F  </i>
   <v name="STM">      0.00000000      0.00000000      0.00000000      0.00000000      0.00000000      0.00000000      0.00000000</v>
  </separator>
  <separator name="performance" >
   <i type="int" name="NPAR">     2</i>
   <i type="int" name="NSIM">     4</i>
   <i type="int" name="NBLK">    -1</i>
   <i type="logical" name="LPLANE"> T  </i>
   <i type="logical" name="LSCALAPACK"> T  </i>
   <i type="logical" name="LSCAAWARE"> F  </i>
   <i type="logical" name="LSCALU"> F  </i>
   <i type="logical" name="LASYNC"> F  </i>
   <i type="logical" name="LORBITALREAL"> F  </i>
  </separator>
  <separator name="miscellaneous" >
   <i type="int" name="IDIOT">     3</i>
   <i type="logical" name="LMUSIC"> F  </i>
   <v name="POMASS">     87.62000000     47.88000000     55.84700000     16.00000000</v>
   <v name="DARWINR">      0.00000000      0.00000000      0.00000000      0.00000000</v>
   <v name="DARWINV">      1.00000000      1.00000000      1.00000000      1.00000000</v>
   <i type="logical" name="LCORR"> T  </i>
  </separator>
  <i type="logical" name="GGA_COMPAT"> T  </i>
  <i type="logical" name="LBERRY"> F  </i>
  <i type="int" name="ICORELEVEL">     0</i>
  <i type="logical" name="LDAU"> T  </i>
  <v type="int" name="LDAUTYPE">     2</v>
  <v type="int" name="LDAUL">     0</v>
  <v name="LDAUU">      0.00000000</v>
  <v name="LDAUJ">      0.00000000</v>
  <i type="int" name="LDAUPRINT">     1</i>
  <i type="int" name="I_CONSTRAINED_M">     0</i>
  <separator name="electronic exchange-correlation" >
   <i type="string" name="GGA">--</i>
   <i type="int" name="VOSKOWN">     0</i>
   <i type="logical" name="LHFCALC"> F  </i>
   <i type="string" name="PRECFOCK"></i>
   <i type="logical" name="LSYMGRAD"> F  </i>
   <i type="logical" name="LHFONE"> F  </i>
   <i type="logical" name="LRHFCALC"> F  </i>
   <i type="logical" name="LTHOMAS"> F  </i>
   <i type="logical" name="LMODELHF"> F  </i>
   <i name="ENCUT4O">     -1.00000000</i>
   <i type="int" name="EXXOEP">     0</i>
   <i type="int" name="FOURORBIT">     0</i>
   <i name="AEXX">      0.00000000</i>
   <i name="HFALPHA">      0.00000000</i>
   <i name="MCALPHA">      0.00000000</i>
   <i name="ALDAX">      1.00000000</i>
   <i name="AGGAX">      1.00000000</i>
   <i name="ALDAC">      1.00000000</i>
   <i name="AGGAC">      1.00000000</i>
   <i type="int" name="NKREDX">     1</i>
   <i type="int" name="NKREDY">     1</i>
   <i type="int" name="NKREDZ">     1</i>
   <i type="logical" name="SHIFTRED"> F  </i>
   <i type="logical" name="ODDONLY"> F  </i>
   <i type="logical" name="EVENONLY"> F  </i>
   <i type="int" name="LMAXFOCK">     0</i>
   <i type="int" name="NMAXFOCKAE">     0</i>
   <i type="logical" name="LFOCKAEDFT"> F  </i>
   <i name="HFSCREEN">      0.00000000</i>
   <i name="HFSCREENC">      0.00000000</i>
   <i type="int" name="NBANDSGWLOW">     0</i>
  </separator>
  <separator name="vdW DFT" >
   <i type="logical" name="LUSE_VDW"> F  </i>
   <i name="Zab_VDW">     -0.84910000</i>
   <i name="PARAM1">      0.12340000</i>
   <i name="PARAM2">      1.00000000</i>
   <i name="PARAM3">      0.00000000</i>
  </separator>
  <separator name="model GW" >
   <i type="int" name="MODEL_GW">     0</i>
   <i name="MODEL_EPS0">      8.23011585</i>
   <i name="MODEL_ALPHA">      1.00000000</i>
  </separator>
  <separator name="linear response parameters" >
   <i type="logical" name="LEPSILON"> F  </i>
   <i type="logical" name="LRPA"> F  </i>
   <i type="logical" name="LNABLA"> F  </i>
   <i type="logical" name="LVEL"> F  </i>
   <i type="int" name="KINTER">     0</i>
   <i name="CSHIFT">      0.10000000</i>
   <i name="OMEGAMAX">     -1.00000000</i>
   <i name="DEG_THRESHOLD">      0.00200000</i>
  </separator>
  <separator name="orbital magnetization" >
   <i type="logical" name="NUCIND"> F  </i>
   <v name="MAGPOS">      0.00000000      0.00000000      0.00000000</v>
   <i type="logical" name="LNICSALL"> T  </i>
   <i type="logical" name="ORBITALMAG"> F  </i>
   <i type="logical" name="LMAGBLOCH"> F  </i>
   <i type="logical" name="LCHIMAG"> F  </i>
   <i type="logical" name="LGAUGE"> T  </i>
   <i type="int" name="MAGATOM">     0</i>
   <v name="MAGDIPOL">      0.00000000      0.00000000      0.00000000</v>
   <v name="AVECCONST">      0.00000000      0.00000000      0.00000000</v>
  </separator>
  <separator name="response functions" >
   <i type="logical" name="LADDER"> F  </i>
   <i type="logical" name="LFXC"> F  </i>
   <i type="logical" name="LHARTREE"> T  </i>
   <i type="int" name="IBSE">     0</i>
   <v type="int" name="KPOINT">    -1     0     0     0</v>
   <i type="logical" name="LTCTE"> F  </i>
   <i type="logical" name="LTETE"> F  </i>
   <i type="logical" name="LTRIPLET"> F  </i>
   <i type="logical" name="LFXCEPS"> F  </i>
   <i type="logical" name="LFXHEG"> F  </i>
   <i type="int" name="NATURALO">     0</i>
   <i type="logical" name="L2ORDER"> F  </i>
   <i type="logical" name="LUSEW"> F  </i>
   <i name="ENCUTGW">     -2.00000000</i>
   <i name="ENCUTGWSOFT">     -2.00000000</i>
   <i name="ENCUTLF">     -1.00000000</i>
   <i type="int" name="LMAXMP2">    -1</i>
   <i name="SCISSOR">      0.00000000</i>
   <i type="int" name="NOMEGA">     0</i>
   <i type="int" name="NOMEGAR">     0</i>
   <i type="int" name="NBANDSGW">    -1</i>
   <i type="int" name="NBANDSO">    -1</i>
   <i type="int" name="NBANDSV">    -1</i>
   <i type="int" name="NELM">    40</i>
   <i type="int" name="NELMHF">     1</i>
   <i type="int" name="DIM">     3</i>
   <i type="int" name="ANTIRES">     0</i>
   <i name="OMEGAMAX">    -30.00000000</i>
   <i name="OMEGAMIN">    -30.00000000</i>
   <i name="OMEGATL">   -200.00000000</i>
   <i type="int" name="OMEGAGRID">     0</i>
   <i name="CSHIFT">     -0.10000000</i>
   <i type="logical" name="SELFENERGY"> F  </i>
   <i type="logical" name="LSPECTRAL"> F  </i>
   <i type="logical" name="LSPECTRALGW"> F  </i>
   <i type="logical" name="LSINGLES"> F  </i>
   <i type="logical" name="LFERMIGW"> F  </i>
   <i type="logical" name="ODDONLYGW"> F  </i>
   <i type="logical" name="EVENONLYGW"> F  </i>
   <i type="int" name="NKREDLFX">     1</i>
   <i type="int" name="NKREDLFY">     1</i>
   <i type="int" name="NKREDLFZ">     1</i>
   <i type="int" name="MAXMEM">  1800</i>
   <i type="int" name="TELESCOPE">     0</i>
   <i type="int" name="TAUPAR">     1</i>
   <i type="int" name="OMEGAPAR">    -1</i>
   <i name="LAMBDA">      1.00000000</i>
  </separator>
  <separator name="External order field" >
   <i name="OFIELD_KAPPA">      0.00000000</i>
   <v name="OFIELD_K">      0.00000000      0.00000000      0.00000000</v>
   <i name="OFIELD_Q6_NEAR">      0.00000000</i>
   <i name="OFIELD_Q6_FAR">      0.00000000</i>
   <i name="OFIELD_A">      0.00000000</i>
  </separator>
 </parameters>
 <atominfo>
  <atoms>     148 </atoms>
  <types>       4 </types>
  <array name="atoms" >
   <dimension dim="1">ion</dimension>
   <field type="string">element</field>
   <field type="int">atomtype</field>
   <set>
    <rc><c>Sr</c><c>   1</c></rc>
    <rc><c>Sr</c><c>   1</c></rc>
    <rc><c>Sr</c><c>   1</c></rc>
    <rc><c>Sr</c><c>   1</c></rc>
    <rc><c>Sr</c><c>   1</c></rc>
    <rc><c>Sr</c><c>   1</c></rc>
    <rc><c>Sr</c><c>   1</c></rc>
    <rc><c>Sr</c><c>   1</c></rc>
    <rc><c>Sr</c><c>   1</c></rc>
    <rc><c>Sr</c><c>   1</c></rc>
    <rc><c>Sr</c><c>   1</c></rc>
    <rc><c>Sr</c><c>   1</c></rc>
    <rc><c>Sr</c><c>   1</c></rc>
    <rc><c>Sr</c><c>   1</c></rc>
    <rc><c>Sr</c><c>   1</c></rc>
    <rc><c>Sr</c><c>   1</c></rc>
    <rc><c>Sr</c><c>   1</c></rc>
    <rc><c>Sr</c><c>   1</c></rc>
    <rc><c>Sr</c><c>   1</c></rc>
    <rc><c>Sr</c><c>   1</c></rc>
    <rc><c>Sr</c><c>   1</c></rc>
    <rc><c>Sr</c><c>   1</c></rc>
    <rc><c>Sr</c><c>   1</c></rc>
    <rc><c>Sr</c><c>   1</c></rc>
    <rc><c>Sr</c><c>   1</c></rc>
    <rc><c>Sr</c><c>   1</c></rc>
    <rc><c>Sr</c><c>   1</c></rc>
    <rc><c>Sr</c><c>   1</c></rc>
    <rc><c>Sr</c><c>   1</c></rc>
    <rc><c>Sr</c><c>   1</c></rc>
    <rc><c>Sr</c><c>   1</c></rc>
    <rc><c>Sr</c><c>   1</c></rc>
    <rc><c>Ti</c><c>   2</c></rc>
    <rc><c>Ti</c><c>   2</c></rc>
    <rc><c>Ti</c><c>   2</c></rc>
    <rc><c>Ti</c><c>   2</c></rc>
    <rc><c>Ti</c><c>   2</c></rc>
    <rc><c>Ti</c><c>   2</c></rc>
    <rc><c>Ti</c><c>   2</c></rc>
    <rc><c>Ti</c><c>   2</c></rc>
    <rc><c>Fe</c><c>   3</c></rc>
    <rc><c>Fe</c><c>   3</c></rc>
    <rc><c>Fe</c><c>   3</c></rc>
    <rc><c>Fe</c><c>   3</c></rc>
    <rc><c>Fe</c><c>   3</c></rc>
    <rc><c>Fe</c><c>   3</c></rc>
    <rc><c>Fe</c><c>   3</c></rc>
    <rc><c>Fe</c><c>   3</c></rc>
    <rc><c>Fe</c><c>   3</c></rc>
    <rc><c>Fe</c><c>   3</c></rc>
    <rc><c>Fe</c><c>   3</c></rc>
    <rc><c>Fe</c><c>   3</c></rc>
    <rc><c>Fe</c><c>   3</c></rc>
    <rc><c>Fe</c><c>   3</c></rc>
    <rc><c>Fe</c><c>   3</c></rc>
    <rc><c>Fe</c><c>   3</c></rc>
    <rc><c>Fe</c><c>   3</c></rc>
    <rc><c>Fe</c><c>   3</c></rc>
    <rc><c>Fe</c><c>   3</c></rc>
    <rc><c>Fe</c><c>   3</c></rc>
    <rc><c>Fe</c><c>   3</c></rc>
    <rc><c>Fe</c><c>   3</c></rc>
    <rc><c>Fe</c><c>   3</c></rc>
    <rc><c>Fe</c><c>   3</c></rc>
    <rc><c>O </c><c>   4</c></rc>
    <rc><c>O </c><c>   4</c></rc>
    <rc><c>O </c><c>   4</c></rc>
    <rc><c>O </c><c>   4</c></rc>
    <rc><c>O </c><c>   4</c></rc>
    <rc><c>O </c><c>   4</c></rc>
    <rc><c>O </c><c>   4</c></rc>
    <rc><c>O </c><c>   4</c></rc>
    <rc><c>O </c><c>   4</c></rc>
    <rc><c>O </c><c>   4</c></rc>
    <rc><c>O </c><c>   4</c></rc>
    <rc><c>O </c><c>   4</c></rc>
    <rc><c>O </c><c>   4</c></rc>
    <rc><c>O </c><c>   4</c></rc>
    <rc><c>O </c><c>   4</c></rc>
    <rc><c>O </c><c>   4</c></rc>
    <rc><c>O </c><c>   4</c></rc>
    <rc><c>O </c><c>   4</c></rc>
    <rc><c>O </c><c>   4</c></rc>
    <rc><c>O </c><c>   4</c></rc>
    <rc><c>O </c><c>   4</c></rc>
    <rc><c>O </c><c>   4</c></rc>
    <rc><c>O </c><c>   4</c></rc>
    <rc><c>O </c><c>   4</c></rc>
    <rc><c>O </c><c>   4</c></rc>
    <rc><c>O </c><c>   4</c></rc>
    <rc><c>O </c><c>   4</c></rc>
    <rc><c>O </c><c>   4</c></rc>
    <rc><c>O </c><c>   4</c></rc>
    <rc><c>O </c><c>   4</c></rc>
    <rc><c>O </c><c>   4</c></rc>
    <rc><c>O </c><c>   4</c></rc>
    <rc><c>O </c><c>   4</c></rc>
    <rc><c>O </c><c>   4</c></rc>
    <rc><c>O </c><c>   4</c></rc>
    <rc><c>O </c><c>   4</c></rc>
    <rc><c>O </c><c>   4</c></rc>
    <rc><c>O </c><c>   4</c></rc>
    <rc><c>O </c><c>   4</c></rc>
    <rc><c>O </c><c>   4</c></rc>
    <rc><c>O </c><c>   4</c></rc>
    <rc><c>O </c><c>   4</c></rc>
    <rc><c>O </c><c>   4</c></rc>
    <rc><c>O </c><c>   4</c></rc>
    <rc><c>O </c><c>   4</c></rc>
    <rc><c>O </c><c>   4</c></rc>
    <rc><c>O </c><c>   4</c></rc>
    <rc><c>O </c><c>   4</c></rc>
    <rc><c>O </c><c>   4</c></rc>
    <rc><c>O </c><c>   4</c></rc>
    <rc><c>O </c><c>   4</c></rc>
    <rc><c>O </c><c>   4</c></rc>
    <rc><c>O </c><c>   4</c></rc>
    <rc><c>O </c><c>   4</c></rc>
    <rc><c>O </c><c>   4</c></rc>
    <rc><c>O </c><c>   4</c></rc>
    <rc><c>O </c><c>   4</c></rc>
    <rc><c>O </c><c>   4</c></rc>
    <rc><c>O </c><c>   4</c></rc>
    <rc><c>O </c><c>   4</c></rc>
    <rc><c>O </c><c>   4</c></rc>
    <rc><c>O </c><c>   4</c></rc>
    <rc><c>O </c><c>   4</c></rc>
    <rc><c>O </c><c>   4</c></rc>
    <rc><c>O </c><c>   4</c></rc>
    <rc><c>O </c><c>   4</c></rc>
    <rc><c>O </c><c>   4</c></rc>
    <rc><c>O </c><c>   4</c></rc>
    <rc><c>O </c><c>   4</c></rc>
    <rc><c>O </c><c>   4</c></rc>
    <rc><c>O </c><c>   4</c></rc>
    <rc><c>O </c><c>   4</c></rc>
    <rc><c>O </c><c>   4</c></rc>
    <rc><c>O </c><c>   4</c></rc>
    <rc><c>O </c><c>   4</c></rc>
    <rc><c>O </c><c>   4</c></rc>
    <rc><c>O </c><c>   4</c></rc>
    <rc><c>O </c><c>   4</c></rc>
    <rc><c>O </c><c>   4</c></rc>
    <rc><c>O </c><c>   4</c></rc>
    <rc><c>O </c><c>   4</c></rc>
    <rc><c>O </c><c>   4</c></rc>
    <rc><c>O </c><c>   4</c></rc>
    <rc><c>O </c><c>   4</c></rc>
   </set>
  </array>
  <array name="atomtypes" >
   <dimension dim="1">type</dimension>
   <field type="int">atomspertype</field>
   <field type="string">element</field>
   <field>mass</field>
   <field>valence</field>
   <field type="string">pseudopotential</field>
   <set>
    <rc><c>  32</c><c>Sr</c><c>     87.62000000</c><c>     10.00000000</c><c>  PAW_PBE Sr_sv 07Sep2000               </c></rc>
    <rc><c>   8</c><c>Ti</c><c>     47.88000000</c><c>      4.00000000</c><c>  PAW_PBE Ti 08Apr2002                  </c></rc>
    <rc><c>  24</c><c>Fe</c><c>     55.84700000</c><c>      8.00000000</c><c>  PAW_PBE Fe 06Sep2000                  </c></rc>
    <rc><c>  84</c><c>O </c><c>     16.00000000</c><c>      6.00000000</c><c>  PAW_PBE O 08Apr2002                   </c></rc>
   </set>
  </array>
 </atominfo>
 <structure name="initialpos" >
  <crystal>
   <varray name="basis" >
    <v>      11.28978882      -0.04299378      -0.01274725 </v>
    <v>      -0.04288423      11.31431206       0.02050877 </v>
    <v>      -0.01870769       0.02944691      15.89317771 </v>
   </varray>
   <i name="volume">   2030.09524197 </i>
   <varray name="rec_basis" >
    <v>       0.08857701       0.00033554       0.00010364 </v>
    <v>       0.00033640       0.08838520      -0.00016336 </v>
    <v>       0.00007061      -0.00011378       0.06292037 </v>
   </varray>
  </crystal>
  <varray name="positions" >
   <v>       0.99774865       0.25093673       0.13275342 </v>
   <v>       0.01570074       0.26305378       0.63243967 </v>
   <v>       0.97981700       0.74430836       0.13339453 </v>
   <v>       0.01026289       0.74083188       0.63230728 </v>
   <v>       0.49484833       0.24627269       0.14051059 </v>
   <v>       0.48696268       0.26596175       0.62088841 </v>
   <v>       0.51383020       0.75609548       0.13562486 </v>
   <v>       0.49553078       0.74585813       0.62746110 </v>
   <v>       0.00116335       0.25356826       0.36576801 </v>
   <v>       0.98596925       0.25786087       0.87344634 </v>
   <v>       0.00514117       0.74164443       0.37410551 </v>
   <v>       0.99239390       0.74447386       0.86888039 </v>
   <v>       0.49020976       0.25734537       0.36830088 </v>
   <v>       0.49555840       0.23260107       0.87345867 </v>
   <v>       0.49782461       0.74227186       0.37103277 </v>
   <v>       0.49814027       0.76194124       0.86075915 </v>
   <v>       0.24342903       0.01026584       0.14071608 </v>
   <v>       0.24744416       0.00496424       0.62935355 </v>
   <v>       0.24137861       0.48586808       0.12915948 </v>
   <v>       0.24174739       0.50156248       0.62678848 </v>
   <v>       0.75170873       0.00726041       0.13763151 </v>
   <v>       0.75852673       0.98371005       0.63466913 </v>
   <v>       0.76122189       0.49121590       0.14021384 </v>
   <v>       0.76235114       0.51491142       0.62899914 </v>
   <v>       0.25033449       0.00109838       0.36702864 </v>
   <v>       0.25151992       0.00773761       0.85570020 </v>
   <v>       0.24649662       0.49531905       0.37233217 </v>
   <v>       0.23406526       0.49136903       0.87386903 </v>
   <v>       0.75161655       0.00596727       0.35822126 </v>
   <v>       0.74948114       0.99194093       0.86097814 </v>
   <v>       0.75410933       0.49495685       0.37003221 </v>
   <v>       0.76825416       0.50636688       0.86954335 </v>
   <v>       0.50327931       0.99758273       0.25162829 </v>
   <v>       0.00152483       0.99830892       0.74726787 </v>
   <v>       0.50539207       0.00115754       0.73347119 </v>
   <v>       0.25400859       0.25023155       0.99882058 </v>
   <v>       0.25266315       0.74001112       0.50325390 </v>
   <v>       0.49917718       0.50125399       0.25020118 </v>
   <v>       0.24831407       0.25922912       0.49883472 </v>
   <v>       0.00228125       0.50142877       0.25139299 </v>
   <v>       0.03136785       0.00037578       0.99051201 </v>
   <v>       0.00341569       0.49901533       0.50138287 </v>
   <v>       0.45896448       0.99484693       0.01117191 </v>
   <v>       0.46901289       0.00668572       0.49893199 </v>
   <v>       0.51378371       0.48342936       0.00863059 </v>
   <v>       0.49601837       0.50251559       0.49584451 </v>
   <v>       0.22720674       0.76423860       0.98935613 </v>
   <v>       0.75030094       0.74845838       0.75208974 </v>
   <v>       0.03356635       0.99199761       0.50017042 </v>
   <v>       0.25040987       0.74949112       0.25818861 </v>
   <v>       0.74439083       0.27749136       0.00627914 </v>
   <v>       0.74782902       0.24855387       0.25315165 </v>
   <v>       0.73415894       0.71475886       0.99394478 </v>
   <v>       0.75170228       0.75588191       0.26559037 </v>
   <v>       0.24737765       0.25065808       0.25098369 </v>
   <v>       0.00831731       0.50899365       0.75201172 </v>
   <v>       0.75474214       0.22618432       0.72574465 </v>
   <v>       0.24975121       0.75184570       0.74979022 </v>
   <v>       0.99543411       0.99977154       0.26186608 </v>
   <v>       0.74209619       0.28177706       0.49790119 </v>
   <v>       0.49192984       0.51380545       0.73926087 </v>
   <v>       0.00226692       0.49508969       0.00295558 </v>
   <v>       0.75604920       0.71968485       0.49889112 </v>
   <v>       0.25224219       0.25254631       0.75127376 </v>
   <v>       0.11932170       0.12205921       0.25261763 </v>
   <v>       0.35152780       0.39800709       0.50425346 </v>
   <v>       0.12854115       0.88443974       0.74070268 </v>
   <v>       0.12262897       0.12433507       0.74612601 </v>
   <v>       0.61879271       0.12725136       0.25885555 </v>
   <v>       0.62039876       0.13415012       0.75835184 </v>
   <v>       0.62453337       0.63313023       0.25549073 </v>
   <v>       0.62608112       0.61308612       0.76755347 </v>
   <v>       0.37799563       0.37446364       0.24364038 </v>
   <v>       0.41369011       0.36942039       0.76222116 </v>
   <v>       0.86763973       0.62619068       0.25006978 </v>
   <v>       0.38570365       0.87848643       0.73757531 </v>
   <v>       0.87461549       0.37295260       0.24879688 </v>
   <v>       0.12234393       0.63522266       0.76175114 </v>
   <v>       0.87655421       0.87549992       0.24177885 </v>
   <v>       0.99305122       0.49892418       0.87689933 </v>
   <v>       0.37515257       0.11689065       0.25327726 </v>
   <v>       0.37928627       0.11613366       0.74336692 </v>
   <v>       0.37309100       0.62402670       0.76106697 </v>
   <v>       0.87243255       0.12359010       0.24690963 </v>
   <v>       0.87680881       0.12118783       0.74765146 </v>
   <v>       0.12405037       0.37716878       0.25276567 </v>
   <v>       0.87108461       0.62775334       0.74648877 </v>
   <v>       0.12519519       0.37377378       0.75667386 </v>
   <v>       0.12712010       0.87742230       0.23949691 </v>
   <v>       0.14997483       0.60131519       0.49706496 </v>
   <v>       0.62758216       0.37872384       0.26668661 </v>
   <v>       0.37116642       0.62782299       0.22342192 </v>
   <v>       0.62744241       0.87708786       0.25285307 </v>
   <v>       0.62719427       0.87933127       0.75036942 </v>
   <v>       0.81991809       0.37116988       0.75151643 </v>
   <v>       0.87975786       0.37184241       0.00871572 </v>
   <v>       0.85579037       0.39972781       0.50866390 </v>
   <v>       0.24798309       0.24839275       0.12341550 </v>
   <v>       0.16851822       0.09595331       0.99390788 </v>
   <v>       0.15279130       0.10598038       0.49960698 </v>
   <v>       0.16701297       0.61045333       0.00536313 </v>
   <v>       0.12374208       0.63053195       0.24761810 </v>
   <v>       0.39744084       0.15288232       0.50071786 </v>
   <v>       0.57476926       0.63971975       0.98275480 </v>
   <v>       0.72846306       0.76649802       0.61216984 </v>
   <v>       0.12001008       0.35525564       0.99468442 </v>
   <v>       0.10241230       0.34967452       0.49792753 </v>
   <v>       0.08214555       0.84288570       0.01211114 </v>
   <v>       0.73746127       0.20601082       0.60581872 </v>
   <v>       0.36688921       0.40637904       0.99289628 </v>
   <v>       0.26033487       0.75074967       0.37658088 </v>
   <v>       0.26569544       0.24218742       0.87446970 </v>
   <v>       0.99541026       0.50283677       0.37447599 </v>
   <v>       0.25429276       0.25330503       0.37568287 </v>
   <v>       0.51950489       0.98761166       0.38732370 </v>
   <v>       0.39848247       0.64902134       0.50512166 </v>
   <v>       0.62225362       0.37913330       0.95653080 </v>
   <v>       0.24804306       0.73730261       0.62644899 </v>
   <v>       0.87030472       0.62078106       0.00579353 </v>
   <v>       0.90397646       0.64864805       0.50678931 </v>
   <v>       0.94580083       0.04724603       0.07942119 </v>
   <v>       0.00554540       0.50279430       0.12696325 </v>
   <v>       0.00813448       0.49572152       0.62992970 </v>
   <v>       0.52239866       0.00143821       0.12261164 </v>
   <v>       0.53285973       0.48487857       0.12460618 </v>
   <v>       0.52242332       0.49784380       0.62413990 </v>
   <v>       0.97604428       0.99826037       0.38794213 </v>
   <v>       0.99331808       0.99309848       0.87348153 </v>
   <v>       0.35389953       0.89143534       0.50922831 </v>
   <v>       0.87845133       0.87236454       0.74381279 </v>
   <v>       0.63954107       0.60673575       0.48264550 </v>
   <v>       0.51408114       0.98118624       0.90062785 </v>
   <v>       0.47392347       0.51228912       0.36936487 </v>
   <v>       0.40737805       0.15279272       0.00786833 </v>
   <v>       0.76144764       0.78776972       0.38954431 </v>
   <v>       0.10701058       0.84524000       0.50071777 </v>
   <v>       0.53369614       0.00088745       0.61206443 </v>
   <v>       0.26315720       0.78088474       0.87550527 </v>
   <v>       0.76907226       0.22216721       0.39002409 </v>
   <v>       0.77648810       0.17534737       0.92310453 </v>
   <v>       0.75735896       0.77071060       0.88236179 </v>
   <v>       0.35370475       0.86024207       0.03707820 </v>
   <v>       0.25225485       0.25771255       0.62690506 </v>
   <v>       0.37871175       0.87427291       0.24578402 </v>
   <v>       0.59470722       0.35456582       0.48858344 </v>
   <v>       0.72011992       0.24781085       0.12247138 </v>
   <v>       0.73049609       0.79632282       0.09257976 </v>
   <v>       0.97780766       0.00435762       0.61158737 </v>
  </varray>
 </structure>
 <calculation>
  <scstep>
   <time name="dav">  302.55  302.65</time>
   <time name="total">  306.33  306.50</time>
   <energy>
    <i name="alphaZ">   5535.41372938 </i>
    <i name="ewald"> -62209.38461871 </i>
    <i name="hartreedc"> -19288.65319808 </i>
    <i name="XCdc">   3406.89912027 </i>
    <i name="pawpsdc"> 117038.67263465 </i>
    <i name="pawaedc">-116547.01782680 </i>
    <i name="eentropy">     -0.00000000 </i>
    <i name="bandstr">  -7244.54769440 </i>
    <i name="atom">  78316.90445604 </i>
    <i name="e_fr_energy">   -991.71339765 </i>
    <i name="e_wo_entrp">   -991.71339765 </i>
    <i name="e_0_energy">   -991.71339765 </i>
   </energy>
  </scstep>
  <scstep>
   <time name="diag">   33.53   33.57</time>
   <time name="diis">   30.91   30.91</time>
   <time name="orth">   19.11   19.10</time>
   <time name="total">   87.36   87.45</time>
   <energy>
    <i name="e_fr_energy">   -991.71339651 </i>
    <i name="e_wo_entrp">   -991.71339651 </i>
    <i name="e_0_energy">   -991.71339651 </i>
   </energy>
  </scstep>
  <scstep>
   <time name="diag">   33.57   33.57</time>
   <time name="diis">   30.16   30.19</time>
   <time name="orth">   19.04   19.04</time>
   <time name="total">   86.54   86.64</time>
   <energy>
    <i name="e_fr_energy">   -991.71339674 </i>
    <i name="e_wo_entrp">   -991.71339674 </i>
    <i name="e_0_energy">   -991.71339674 </i>
   </energy>
  </scstep>
  <scstep>
   <time name="diag">   33.50   33.52</time>
   <time name="diis">   24.35   24.36</time>
   <time name="orth">   19.09   19.10</time>
   <time name="total">   80.75   80.89</time>
   <energy>
    <i name="e_fr_energy">   -991.71339679 </i>
    <i name="e_wo_entrp">   -991.71339679 </i>
    <i name="e_0_energy">   -991.71339679 </i>
   </energy>
  </scstep>
  <scstep>
   <time name="diag">   33.58   33.58</time>
   <time name="diis">   23.98   23.99</time>
   <time name="orth">   19.07   19.07</time>
   <time name="total">   80.43   80.53</time>
   <energy>
    <i name="e_fr_energy">   -991.71339687 </i>
    <i name="e_wo_entrp">   -991.71339687 </i>
    <i name="e_0_energy">   -991.71339687 </i>
   </energy>
  </scstep>
  <scstep>
   <time name="diag">   33.56   33.56</time>
   <time name="diis">   22.69   22.69</time>
   <time name="orth">   19.07   19.07</time>
   <time name="total">   79.10   79.15</time>
   <energy>
    <i name="e_fr_energy">   -991.71339691 </i>
    <i name="e_wo_entrp">   -991.71339691 </i>
    <i name="e_0_energy">   -991.71339691 </i>
   </energy>
  </scstep>
  <scstep>
   <time name="diag">   33.52   33.55</time>
   <time name="diis">   22.16   22.18</time>
   <time name="orth">   19.08   19.08</time>
   <time name="total">   78.55   78.70</time>
   <energy>
    <i name="e_fr_energy">   -991.71339693 </i>
    <i name="e_wo_entrp">   -991.71339693 </i>
    <i name="e_0_energy">   -991.71339693 </i>
   </energy>
  </scstep>
  <scstep>
   <time name="diag">   33.55   33.57</time>
   <time name="diis">   21.86   21.88</time>
   <time name="orth">   19.09   19.09</time>
   <time name="total">   75.07   75.16</time>
   <energy>
    <i name="alphaZ">   5535.41372938 </i>
    <i name="ewald"> -62209.38461871 </i>
    <i name="hartreedc"> -19288.65050236 </i>
    <i name="XCdc">   3406.89946926 </i>
    <i name="pawpsdc"> 117037.50092090 </i>
    <i name="pawaedc">-116545.83877492 </i>
    <i name="eentropy">     -0.00000000 </i>
    <i name="bandstr">  -7244.55807654 </i>
    <i name="atom">  78316.90445604 </i>
    <i name="e_fr_energy">   -991.71339695 </i>
    <i name="e_wo_entrp">   -991.71339695 </i>
    <i name="e_0_energy">   -991.71339695 </i>
   </energy>
  </scstep>
  <structure>
   <crystal>
    <varray name="basis" >
     <v>      11.28978882      -0.04299378      -0.01274725 </v>
     <v>      -0.04288423      11.31431206       0.02050877 </v>
     <v>      -0.01870769       0.02944691      15.89317771 </v>
    </varray>
    <i name="volume">   2030.09524197 </i>
    <varray name="rec_basis" >
     <v>       0.08857701       0.00033554       0.00010364 </v>
     <v>       0.00033640       0.08838520      -0.00016336 </v>
     <v>       0.00007061      -0.00011378       0.06292037 </v>
    </varray>
   </crystal>
   <varray name="positions" >
    <v>       0.99774865       0.25093673       0.13275342 </v>
    <v>       0.01570074       0.26305378       0.63243967 </v>
    <v>       0.97981700       0.74430836       0.13339453 </v>
    <v>       0.01026289       0.74083188       0.63230728 </v>
    <v>       0.49484833       0.24627269       0.14051059 </v>
    <v>       0.48696268       0.26596175       0.62088841 </v>
    <v>       0.51383020       0.75609548       0.13562486 </v>
    <v>       0.49553078       0.74585813       0.62746110 </v>
    <v>       0.00116335       0.25356826       0.36576801 </v>
    <v>       0.98596925       0.25786087       0.87344634 </v>
    <v>       0.00514117       0.74164443       0.37410551 </v>
    <v>       0.99239390       0.74447386       0.86888039 </v>
    <v>       0.49020976       0.25734537       0.36830088 </v>
    <v>       0.49555840       0.23260107       0.87345867 </v>
    <v>       0.49782461       0.74227186       0.37103277 </v>
    <v>       0.49814027       0.76194124       0.86075915 </v>
    <v>       0.24342903       0.01026584       0.14071608 </v>
    <v>       0.24744416       0.00496424       0.62935355 </v>
    <v>       0.24137861       0.48586808       0.12915948 </v>
    <v>       0.24174739       0.50156248       0.62678848 </v>
    <v>       0.75170873       0.00726041       0.13763151 </v>
    <v>       0.75852673       0.98371005       0.63466913 </v>
    <v>       0.76122189       0.49121590       0.14021384 </v>
    <v>       0.76235114       0.51491142       0.62899914 </v>
    <v>       0.25033449       0.00109838       0.36702864 </v>
    <v>       0.25151992       0.00773761       0.85570020 </v>
    <v>       0.24649662       0.49531905       0.37233217 </v>
    <v>       0.23406526       0.49136903       0.87386903 </v>
    <v>       0.75161655       0.00596727       0.35822126 </v>
    <v>       0.74948114       0.99194093       0.86097814 </v>
    <v>       0.75410933       0.49495685       0.37003221 </v>
    <v>       0.76825416       0.50636688       0.86954335 </v>
    <v>       0.50327931       0.99758273       0.25162829 </v>
    <v>       0.00152483       0.99830892       0.74726787 </v>
    <v>       0.50539207       0.00115754       0.73347119 </v>
    <v>       0.25400859       0.25023155       0.99882058 </v>
    <v>       0.25266315       0.74001112       0.50325390 </v>
    <v>       0.49917718       0.50125399       0.25020118 </v>
    <v>       0.24831407       0.25922912       0.49883472 </v>
    <v>       0.00228125       0.50142877       0.25139299 </v>
    <v>       0.03136785       0.00037578       0.99051201 </v>
    <v>       0.00341569       0.49901533       0.50138287 </v>
    <v>       0.45896448       0.99484693       0.01117191 </v>
    <v>       0.46901289       0.00668572       0.49893199 </v>
    <v>       0.51378371       0.48342936       0.00863059 </v>
    <v>       0.49601837       0.50251559       0.49584451 </v>
    <v>       0.22720674       0.76423860       0.98935613 </v>
    <v>       0.75030094       0.74845838       0.75208974 </v>
    <v>       0.03356635       0.99199761       0.50017042 </v>
    <v>       0.25040987       0.74949112       0.25818861 </v>
    <v>       0.74439083       0.27749136       0.00627914 </v>
    <v>       0.74782902       0.24855387       0.25315165 </v>
    <v>       0.73415894       0.71475886       0.99394478 </v>
    <v>       0.75170228       0.75588191       0.26559037 </v>
    <v>       0.24737765       0.25065808       0.25098369 </v>
    <v>       0.00831731       0.50899365       0.75201172 </v>
    <v>       0.75474214       0.22618432       0.72574465 </v>
    <v>       0.24975121       0.75184570       0.74979022 </v>
    <v>       0.99543411       0.99977154       0.26186608 </v>
    <v>       0.74209619       0.28177706       0.49790119 </v>
    <v>       0.49192984       0.51380545       0.73926087 </v>
    <v>       0.00226692       0.49508969       0.00295558 </v>
    <v>       0.75604920       0.71968485       0.49889112 </v>
    <v>       0.25224219       0.25254631       0.75127376 </v>
    <v>       0.11932170       0.12205921       0.25261763 </v>
    <v>       0.35152780       0.39800709       0.50425346 </v>
    <v>       0.12854115       0.88443974       0.74070268 </v>
    <v>       0.12262897       0.12433507       0.74612601 </v>
    <v>       0.61879271       0.12725136       0.25885555 </v>
    <v>       0.62039876       0.13415012       0.75835184 </v>
    <v>       0.62453337       0.63313023       0.25549073 </v>
    <v>       0.62608112       0.61308612       0.76755347 </v>
    <v>       0.37799563       0.37446364       0.24364038 </v>
    <v>       0.41369011       0.36942039       0.76222116 </v>
    <v>       0.86763973       0.62619068       0.25006978 </v>
    <v>       0.38570365       0.87848643       0.73757531 </v>
    <v>       0.87461549       0.37295260       0.24879688 </v>
    <v>       0.12234393       0.63522266       0.76175114 </v>
    <v>       0.87655421       0.87549992       0.24177885 </v>
    <v>       0.99305122       0.49892418       0.87689933 </v>
    <v>       0.37515257       0.11689065       0.25327726 </v>
    <v>       0.37928627       0.11613366       0.74336692 </v>
    <v>       0.37309100       0.62402670       0.76106697 </v>
    <v>       0.87243255       0.12359010       0.24690963 </v>
    <v>       0.87680881       0.12118783       0.74765146 </v>
    <v>       0.12405037       0.37716878       0.25276567 </v>
    <v>       0.87108461       0.62775334       0.74648877 </v>
    <v>       0.12519519       0.37377378       0.75667386 </v>
    <v>       0.12712010       0.87742230       0.23949691 </v>
    <v>       0.14997483       0.60131519       0.49706496 </v>
    <v>       0.62758216       0.37872384       0.26668661 </v>
    <v>       0.37116642       0.62782299       0.22342192 </v>
    <v>       0.62744241       0.87708786       0.25285307 </v>
    <v>       0.62719427       0.87933127       0.75036942 </v>
    <v>       0.81991809       0.37116988       0.75151643 </v>
    <v>       0.87975786       0.37184241       0.00871572 </v>
    <v>       0.85579037       0.39972781       0.50866390 </v>
    <v>       0.24798309       0.24839275       0.12341550 </v>
    <v>       0.16851822       0.09595331       0.99390788 </v>
    <v>       0.15279130       0.10598038       0.49960698 </v>
    <v>       0.16701297       0.61045333       0.00536313 </v>
    <v>       0.12374208       0.63053195       0.24761810 </v>
    <v>       0.39744084       0.15288232       0.50071786 </v>
    <v>       0.57476926       0.63971975       0.98275480 </v>
    <v>       0.72846306       0.76649802       0.61216984 </v>
    <v>       0.12001008       0.35525564       0.99468442 </v>
    <v>       0.10241230       0.34967452       0.49792753 </v>
    <v>       0.08214555       0.84288570       0.01211114 </v>
    <v>       0.73746127       0.20601082       0.60581872 </v>
    <v>       0.36688921       0.40637904       0.99289628 </v>
    <v>       0.26033487       0.75074967       0.37658088 </v>
    <v>       0.26569544       0.24218742       0.87446970 </v>
    <v>       0.99541026       0.50283677       0.37447599 </v>
    <v>       0.25429276       0.25330503       0.37568287 </v>
    <v>       0.51950489       0.98761166       0.38732370 </v>
    <v>       0.39848247       0.64902134       0.50512166 </v>
    <v>       0.62225362       0.37913330       0.95653080 </v>
    <v>       0.24804306       0.73730261       0.62644899 </v>
    <v>       0.87030472       0.62078106       0.00579353 </v>
    <v>       0.90397646       0.64864805       0.50678931 </v>
    <v>       0.94580083       0.04724603       0.07942119 </v>
    <v>       0.00554540       0.50279430       0.12696325 </v>
    <v>       0.00813448       0.49572152       0.62992970 </v>
    <v>       0.52239866       0.00143821       0.12261164 </v>
    <v>       0.53285973       0.48487857       0.12460618 </v>
    <v>       0.52242332       0.49784380       0.62413990 </v>
    <v>       0.97604428       0.99826037       0.38794213 </v>
    <v>       0.99331808       0.99309848       0.87348153 </v>
    <v>       0.35389953       0.89143534       0.50922831 </v>
    <v>       0.87845133       0.87236454       0.74381279 </v>
    <v>       0.63954107       0.60673575       0.48264550 </v>
    <v>       0.51408114       0.98118624       0.90062785 </v>
    <v>       0.47392347       0.51228912       0.36936487 </v>
    <v>       0.40737805       0.15279272       0.00786833 </v>
    <v>       0.76144764       0.78776972       0.38954431 </v>
    <v>       0.10701058       0.84524000       0.50071777 </v>
    <v>       0.53369614       0.00088745       0.61206443 </v>
    <v>       0.26315720       0.78088474       0.87550527 </v>
    <v>       0.76907226       0.22216721       0.39002409 </v>
    <v>       0.77648810       0.17534737       0.92310453 </v>
    <v>       0.75735896       0.77071060       0.88236179 </v>
    <v>       0.35370475       0.86024207       0.03707820 </v>
    <v>       0.25225485       0.25771255       0.62690506 </v>
    <v>       0.37871175       0.87427291       0.24578402 </v>
    <v>       0.59470722       0.35456582       0.48858344 </v>
    <v>       0.72011992       0.24781085       0.12247138 </v>
    <v>       0.73049609       0.79632282       0.09257976 </v>
    <v>       0.97780766       0.00435762       0.61158737 </v>
   </varray>
  </structure>
  <varray name="forces" >
   <v>       0.00088379       0.00704508      -0.00188100 </v>
   <v>       0.00191255       0.00043997      -0.00005208 </v>
   <v>      -0.00172320      -0.00318296       0.00349215 </v>
   <v>       0.01363484      -0.00430238       0.00022052 </v>
   <v>       0.00679925      -0.00610343      -0.00596984 </v>
   <v>      -0.00203703       0.00384647       0.00150165 </v>
   <v>       0.00304812      -0.00309653       0.00555817 </v>
   <v>      -0.01073576      -0.00168626       0.01010344 </v>
   <v>      -0.00732506      -0.00237831      -0.00660298 </v>
   <v>       0.00547898       0.00214854      -0.00601698 </v>
   <v>       0.00205169       0.00515789      -0.00316289 </v>
   <v>       0.00397512       0.00139835      -0.00881478 </v>
   <v>      -0.00070129      -0.00277034       0.01514456 </v>
   <v>      -0.01185800      -0.01372602      -0.00304639 </v>
   <v>       0.00919245       0.00121183       0.00115303 </v>
   <v>      -0.00627858      -0.00250664       0.00158177 </v>
   <v>       0.00052971       0.00903541      -0.00011867 </v>
   <v>       0.00008642      -0.01914891       0.00828196 </v>
   <v>      -0.00561323       0.00020647       0.00002880 </v>
   <v>       0.00291400      -0.00091602      -0.00470886 </v>
   <v>       0.01181284       0.00092946      -0.01183539 </v>
   <v>       0.00663250      -0.01025271      -0.00629879 </v>
   <v>       0.00851077       0.00694954      -0.00699949 </v>
   <v>       0.00292168       0.00100940      -0.00405176 </v>
   <v>      -0.01600725       0.00267218       0.00086524 </v>
   <v>       0.00413534      -0.00592847      -0.00447168 </v>
   <v>      -0.00541284       0.00028096       0.00548594 </v>
   <v>       0.00985007      -0.00382640      -0.01349328 </v>
   <v>      -0.00477024       0.00436797      -0.00019681 </v>
   <v>       0.01001846      -0.01138731       0.00558068 </v>
   <v>       0.00727854      -0.00185419       0.00271650 </v>
   <v>      -0.00498798       0.00126452      -0.00397345 </v>
   <v>       0.00297632      -0.01965449       0.00866415 </v>
   <v>       0.03331337      -0.00449679       0.00613809 </v>
   <v>      -0.04080493      -0.03364292      -0.00859238 </v>
   <v>      -0.00417615       0.00210183      -0.01565221 </v>
   <v>      -0.01187270      -0.00099827       0.01997363 </v>
   <v>       0.00459958       0.01353980      -0.00838376 </v>
   <v>      -0.00662598      -0.00354027       0.00078877 </v>
   <v>       0.00744850      -0.02548300       0.01063971 </v>
   <v>       0.00386696      -0.01166641       0.01434209 </v>
   <v>      -0.00558504      -0.00341396       0.00527939 </v>
   <v>      -0.00703610       0.00223752      -0.01752075 </v>
   <v>      -0.01026422       0.00289449      -0.01189814 </v>
   <v>      -0.01914194       0.00246670      -0.00138404 </v>
   <v>       0.00956211      -0.00233931       0.00694394 </v>
   <v>       0.00182740      -0.00886946      -0.03270675 </v>
   <v>       0.00673154      -0.00840160      -0.00041766 </v>
   <v>      -0.00918066       0.00002654      -0.00054449 </v>
   <v>       0.00923990       0.00207720       0.00741471 </v>
   <v>      -0.00300345      -0.00694412      -0.01003040 </v>
   <v>       0.01446514       0.00022678       0.00110826 </v>
   <v>      -0.01818221       0.00156918       0.00403109 </v>
   <v>      -0.00702000       0.00695806      -0.00401592 </v>
   <v>      -0.01069291       0.00664750      -0.00066342 </v>
   <v>      -0.00279204       0.00660461       0.00145200 </v>
   <v>       0.00892204       0.01428564       0.00729446 </v>
   <v>      -0.00233587      -0.00322456      -0.01244473 </v>
   <v>       0.00091435       0.00166327      -0.00976022 </v>
   <v>       0.00171204       0.01224005      -0.00418353 </v>
   <v>      -0.03333669      -0.02054590      -0.00154422 </v>
   <v>       0.00085667       0.00059655      -0.00570250 </v>
   <v>       0.02123464       0.00235249       0.00319748 </v>
   <v>      -0.00233422      -0.00242646      -0.00200601 </v>
   <v>       0.00784830      -0.00338128       0.00669788 </v>
   <v>       0.01159109       0.00977692      -0.00601023 </v>
   <v>      -0.02482176       0.00406001       0.00128106 </v>
   <v>       0.00081231      -0.00769360      -0.01292691 </v>
   <v>       0.00125727       0.01214859      -0.01198479 </v>
   <v>       0.00770049       0.00591411      -0.00636505 </v>
   <v>       0.00000726      -0.00977964       0.00522592 </v>
   <v>       0.01393930       0.02286768       0.00074900 </v>
   <v>      -0.00253082       0.00058139       0.00064660 </v>
   <v>       0.00042628       0.00388277      -0.00353759 </v>
   <v>       0.00432436      -0.00074665      -0.00082405 </v>
   <v>       0.00905610       0.00940030       0.00098879 </v>
   <v>       0.00365551       0.00105200       0.00625305 </v>
   <v>       0.00479923       0.00049906      -0.00195951 </v>
   <v>      -0.00090742      -0.00329770      -0.00703845 </v>
   <v>       0.00175188       0.00049074       0.00218327 </v>
   <v>      -0.00241124       0.00496556      -0.00570251 </v>
   <v>       0.01450424      -0.00153554      -0.00991558 </v>
   <v>       0.01002091       0.00015703       0.00767025 </v>
   <v>      -0.00338632       0.00664023       0.00885578 </v>
   <v>      -0.00220838       0.01099924      -0.00055879 </v>
   <v>       0.00486791       0.00107624       0.00119263 </v>
   <v>      -0.00274224       0.00307297      -0.00454460 </v>
   <v>      -0.01349410       0.01255848      -0.00051419 </v>
   <v>       0.01055449       0.00265093       0.00255037 </v>
   <v>       0.01478820       0.01731103       0.00116041 </v>
   <v>       0.00448689       0.00903251       0.00182914 </v>
   <v>       0.00665495       0.00086642      -0.00796325 </v>
   <v>      -0.00683889       0.01097763      -0.00418111 </v>
   <v>       0.00030649       0.00333804      -0.00277000 </v>
   <v>      -0.01542194      -0.00243672      -0.00111994 </v>
   <v>       0.00678321       0.00506148      -0.01265405 </v>
   <v>      -0.00084568      -0.00233544       0.00840524 </v>
   <v>       0.00294553      -0.00411600       0.00917796 </v>
   <v>      -0.00073435       0.00284787       0.00103446 </v>
   <v>      -0.00454651      -0.00145923       0.00097471 </v>
   <v>       0.00730569      -0.00051034       0.00167904 </v>
   <v>       0.00264371      -0.00322159      -0.00238713 </v>
   <v>       0.00166982      -0.00962281       0.01136837 </v>
   <v>       0.00461860      -0.00696191      -0.00368994 </v>
   <v>       0.00291016       0.00606389       0.01641762 </v>
   <v>      -0.00930823       0.01502272       0.00288233 </v>
   <v>       0.01330131      -0.00874139      -0.00102060 </v>
   <v>      -0.00285293       0.01663979      -0.00522785 </v>
   <v>       0.00212529      -0.00848081       0.00688928 </v>
   <v>      -0.00713359       0.00163043       0.01861359 </v>
   <v>      -0.00086927      -0.01402294      -0.01070739 </v>
   <v>      -0.00435108      -0.01049130       0.00931129 </v>
   <v>      -0.00015167       0.00513949      -0.01887835 </v>
   <v>       0.00613665      -0.00139056      -0.00735698 </v>
   <v>       0.00205319       0.01538562       0.01263404 </v>
   <v>       0.00497083       0.00017982      -0.00188374 </v>
   <v>       0.00109111      -0.00368156      -0.00050908 </v>
   <v>       0.01200195      -0.00178730       0.00337806 </v>
   <v>       0.01025933       0.00055072      -0.00046398 </v>
   <v>      -0.01841518       0.01292352       0.00216196 </v>
   <v>       0.01799543      -0.00122079       0.01991433 </v>
   <v>      -0.01055791      -0.00137914      -0.00155219 </v>
   <v>       0.00724384       0.00412006       0.00803285 </v>
   <v>      -0.00601043       0.00211122      -0.00421056 </v>
   <v>       0.00379515      -0.00333863       0.01028595 </v>
   <v>       0.00394734       0.01008941       0.00443932 </v>
   <v>       0.00777176      -0.00072107       0.00474515 </v>
   <v>      -0.00408310      -0.00318298       0.00432063 </v>
   <v>       0.00581992       0.00489222      -0.00643804 </v>
   <v>      -0.01152454       0.00547836       0.00381401 </v>
   <v>      -0.00062293      -0.00920549      -0.00345125 </v>
   <v>      -0.01485956       0.01114298      -0.00953393 </v>
   <v>      -0.00529675      -0.00544471      -0.00390323 </v>
   <v>      -0.00558353      -0.01158524       0.00695033 </v>
   <v>      -0.00387537      -0.00016936       0.00278479 </v>
   <v>      -0.00388455       0.00575163      -0.01418473 </v>
   <v>       0.01178454      -0.00705637      -0.00318960 </v>
   <v>      -0.01631840       0.00443053       0.04436115 </v>
   <v>      -0.00715643      -0.01388595       0.00234851 </v>
   <v>      -0.01934651      -0.00544894       0.02536238 </v>
   <v>      -0.00789526      -0.00765533      -0.00566295 </v>
   <v>       0.00204658       0.00416577       0.00090117 </v>
   <v>       0.00192279       0.01076722      -0.00335876 </v>
   <v>      -0.00604083       0.00318550       0.00298530 </v>
   <v>      -0.00650699       0.00300086       0.00442444 </v>
   <v>       0.01212535      -0.00296217       0.00294591 </v>
   <v>       0.00706476       0.00298286      -0.00633358 </v>
   <v>      -0.00965474      -0.00667118      -0.00614978 </v>
  </varray>
  <varray name="stress" >
   <v>       0.02768109       0.04434789       0.01845635 </v>
   <v>       0.04434838      -0.08945087       0.05509646 </v>
   <v>       0.01845614       0.05509645      -0.10708019 </v>
  </varray>
  <energy>
   <i name="e_fr_energy">   -991.71339695 </i>
   <i name="e_wo_entrp">   -991.71339695 </i>
   <i name="e_0_energy">     -0.00000000 </i>
  </energy>
  <time name="totalsc"> 1025.01 1027.84</time>
 </calculation>
 <calculation>
  <scstep>
   <time name="dav">  292.85  292.92</time>
   <time name="total">  296.61  296.78</time>
   <energy>
    <i name="alphaZ">   5535.79979219 </i>
    <i name="ewald"> -62210.31026947 </i>
    <i name="hartreedc"> -19289.51304127 </i>
    <i name="XCdc">   3406.99989559 </i>
    <i name="pawpsdc"> 117037.49300906 </i>
    <i name="pawaedc">-116545.83084441 </i>
    <i name="eentropy">     -0.00000000 </i>
    <i name="bandstr">  -7243.25551796 </i>
    <i name="atom">  78316.90445604 </i>
    <i name="e_fr_energy">   -991.71252023 </i>
    <i name="e_wo_entrp">   -991.71252023 </i>
    <i name="e_0_energy">   -991.71252023 </i>
   </energy>
  </scstep>
  <scstep>
   <time name="diag">   33.47   33.47</time>
   <time name="diis">   52.81   52.82</time>
   <time name="orth">   19.05   19.05</time>
   <time name="total">  109.11  109.13</time>
   <energy>
    <i name="e_fr_energy">   -991.71397869 </i>
    <i name="e_wo_entrp">   -991.71397869 </i>
    <i name="e_0_energy">   -991.71397869 </i>
   </energy>
  </scstep>
  <scstep>
   <time name="diag">   33.43   33.45</time>
   <time name="diis">   43.31   43.31</time>
   <time name="orth">   19.04   19.04</time>
   <time name="total">   99.57   99.67</time>
   <energy>
    <i name="e_fr_energy">   -991.71412991 </i>
    <i name="e_wo_entrp">   -991.71412991 </i>
    <i name="e_0_energy">   -991.71412991 </i>
   </energy>
  </scstep>
  <scstep>
   <time name="diag">   33.49   33.51</time>
   <time name="diis">   33.19   33.22</time>
   <time name="orth">   19.13   19.13</time>
   <time name="total">   89.58   89.78</time>
   <energy>
    <i name="e_fr_energy">   -991.71408248 </i>
    <i name="e_wo_entrp">   -991.71408248 </i>
    <i name="e_0_energy">   -991.71408248 </i>
   </energy>
  </scstep>
  <scstep>
   <time name="diag">   33.53   33.54</time>
   <time name="diis">   32.77   32.77</time>
   <time name="orth">   19.07   19.07</time>
   <time name="total">   89.17   89.23</time>
   <energy>
    <i name="e_fr_energy">   -991.71405715 </i>
    <i name="e_wo_entrp">   -991.71405715 </i>
    <i name="e_0_energy">   -991.71405715 </i>
   </energy>
  </scstep>
  <scstep>
   <time name="diag">   33.51   33.51</time>
   <time name="diis">   31.71   31.72</time>
   <time name="orth">   19.06   19.06</time>
   <time name="total">   88.08   88.19</time>
   <energy>
    <i name="e_fr_energy">   -991.71406004 </i>
    <i name="e_wo_entrp">   -991.71406004 </i>
    <i name="e_0_energy">   -991.71406004 </i>
   </energy>
  </scstep>
  <scstep>
   <time name="diag">   33.50   33.50</time>
   <time name="diis">   30.47   30.47</time>
   <time name="orth">   19.07   19.06</time>
   <time name="total">   86.83   86.87</time>
   <energy>
    <i name="e_fr_energy">   -991.71406040 </i>
    <i name="e_wo_entrp">   -991.71406040 </i>
    <i name="e_0_energy">   -991.71406040 </i>
   </energy>
  </scstep>
  <scstep>
   <time name="diag">   33.56   33.56</time>
   <time name="diis">   29.23   29.25</time>
   <time name="orth">   19.05   19.05</time>
   <time name="total">   82.41   82.49</time>
   <energy>
    <i name="alphaZ">   5535.79979219 </i>
    <i name="ewald"> -62210.31026947 </i>
    <i name="hartreedc"> -19288.43854608 </i>
    <i name="XCdc">   3406.93124694 </i>
    <i name="pawpsdc"> 117052.20413409 </i>
    <i name="pawaedc">-116560.56145059 </i>
    <i name="eentropy">     -0.00000000 </i>
    <i name="bandstr">  -7244.24342400 </i>
    <i name="atom">  78316.90445604 </i>
    <i name="e_fr_energy">   -991.71406087 </i>
    <i name="e_wo_entrp">   -991.71406087 </i>
    <i name="e_0_energy">   -991.71406087 </i>
   </energy>
  </scstep>
  <structure>
   <crystal>
    <varray name="basis" >
     <v>      11.28991701      -0.04278568      -0.01266161 </v>
     <v>      -0.04267732      11.31389373       0.02076501 </v>
     <v>      -0.01858622       0.02980715      15.89247533 </v>
    </varray>
    <i name="volume">   2029.95366455 </i>
    <varray name="rec_basis" >
     <v>       0.08857599       0.00033393       0.00010296 </v>
     <v>       0.00033478       0.08838847      -0.00016539 </v>
     <v>       0.00007013      -0.00011522       0.06292316 </v>
    </varray>
   </crystal>
   <varray name="positions" >
    <v>       0.99775253       0.25096680       0.13274768 </v>
    <v>       0.01570892       0.26305569       0.63243951 </v>
    <v>       0.97980960       0.74429474       0.13340514 </v>
    <v>       0.01032108       0.74081376       0.63230802 </v>
    <v>       0.49487726       0.24624683       0.14049252 </v>
    <v>       0.48695404       0.26597811       0.62089294 </v>
    <v>       0.51384320       0.75608228       0.13564176 </v>
    <v>       0.49548493       0.74585068       0.62749174 </v>
    <v>       0.00113198       0.25355806       0.36574795 </v>
    <v>       0.98599267       0.25787017       0.87342808 </v>
    <v>       0.00515000       0.74166648       0.37409588 </v>
    <v>       0.99241087       0.74447996       0.86885364 </v>
    <v>       0.49020679       0.25733343       0.36834686 </v>
    <v>       0.49550749       0.23254238       0.87344946 </v>
    <v>       0.49786392       0.74227716       0.37103629 </v>
    <v>       0.49811341       0.76193044       0.86076394 </v>
    <v>       0.24343144       0.01030438       0.14071568 </v>
    <v>       0.24744426       0.00488253       0.62937880 </v>
    <v>       0.24135463       0.48586887       0.12915955 </v>
    <v>       0.24175980       0.50155866       0.62677421 </v>
    <v>       0.75175916       0.00726466       0.13759562 </v>
    <v>       0.75855487       0.98366649       0.63465009 </v>
    <v>       0.76125834       0.49124573       0.14019259 </v>
    <v>       0.76236362       0.51491581       0.62898685 </v>
    <v>       0.25026614       0.00110951       0.36703120 </v>
    <v>       0.25153747       0.00771244       0.85568667 </v>
    <v>       0.24647352       0.49532012       0.37234880 </v>
    <v>       0.23410722       0.49135298       0.87382812 </v>
    <v>       0.75159624       0.00598582       0.35822062 </v>
    <v>       0.74952379       0.99189249       0.86099517 </v>
    <v>       0.75414042       0.49494904       0.37004049 </v>
    <v>       0.76823285       0.50637223       0.86953126 </v>
    <v>       0.50329175       0.99749890       0.25165471 </v>
    <v>       0.00166714       0.99829024       0.74728664 </v>
    <v>       0.50521711       0.00101350       0.73344515 </v>
    <v>       0.25399070       0.25024057       0.99877304 </v>
    <v>       0.25261250       0.74000651       0.50331449 </v>
    <v>       0.49919701       0.50131187       0.25017568 </v>
    <v>       0.24828571       0.25921391       0.49883711 </v>
    <v>       0.00231272       0.50132015       0.25142546 </v>
    <v>       0.03138426       0.00032599       0.99055562 </v>
    <v>       0.00339179       0.49900064       0.50139890 </v>
    <v>       0.45893436       0.99485650       0.01111869 </v>
    <v>       0.46896901       0.00669799       0.49889582 </v>
    <v>       0.51370194       0.48343958       0.00862631 </v>
    <v>       0.49605922       0.50250572       0.49586563 </v>
    <v>       0.22721424       0.76420107       0.98925691 </v>
    <v>       0.75032957       0.74842267       0.75208854 </v>
    <v>       0.03352712       0.99199758       0.50016874 </v>
    <v>       0.25044942       0.74950007       0.25821114 </v>
    <v>       0.74437783       0.27746178       0.00624872 </v>
    <v>       0.74789085       0.24855507       0.25315507 </v>
    <v>       0.73408129       0.71476523       0.99395694 </v>
    <v>       0.75167237       0.75591150       0.26557812 </v>
    <v>       0.24733206       0.25068626       0.25098161 </v>
    <v>       0.00830549       0.50902176       0.75201608 </v>
    <v>       0.75478053       0.22624532       0.72576674 </v>
    <v>       0.24974111       0.75183201       0.74975245 </v>
    <v>       0.99543800       0.99977872       0.26183645 </v>
    <v>       0.74210368       0.28182931       0.49788843 </v>
    <v>       0.49178704       0.51371732       0.73925618 </v>
    <v>       0.00227057       0.49509229       0.00293827 </v>
    <v>       0.75613999       0.71969520       0.49890089 </v>
    <v>       0.25223217       0.25253594       0.75126767 </v>
    <v>       0.11935522       0.12204487       0.25263801 </v>
    <v>       0.35157746       0.39804901       0.50423520 </v>
    <v>       0.12843515       0.88445664       0.74070646 </v>
    <v>       0.12263225       0.12430238       0.74608681 </v>
    <v>       0.61879822       0.12730328       0.25881911 </v>
    <v>       0.62043173       0.13417551       0.75833252 </v>
    <v>       0.62453326       0.63308849       0.25550665 </v>
    <v>       0.62614106       0.61318385       0.76755567 </v>
    <v>       0.37798482       0.37446607       0.24364233 </v>
    <v>       0.41369198       0.36943698       0.76221040 </v>
    <v>       0.86765820       0.62618757       0.25006730 </v>
    <v>       0.38574250       0.87852665       0.73757829 </v>
    <v>       0.87463116       0.37295710       0.24881587 </v>
    <v>       0.12236444       0.63522488       0.76174521 </v>
    <v>       0.87655024       0.87548590       0.24175750 </v>
    <v>       0.99305872       0.49892628       0.87690596 </v>
    <v>       0.37514232       0.11691183       0.25325991 </v>
    <v>       0.37934817       0.11612742       0.74333688 </v>
    <v>       0.37313387       0.62402747       0.76109029 </v>
    <v>       0.87241823       0.12361829       0.24693646 </v>
    <v>       0.87679955       0.12123470       0.74764969 </v>
    <v>       0.12407119       0.37717344       0.25276931 </v>
    <v>       0.87107292       0.62776643       0.74647495 </v>
    <v>       0.12513773       0.37382712       0.75667219 </v>
    <v>       0.12716526       0.87743376       0.23950467 </v>
    <v>       0.15003831       0.60138924       0.49706844 </v>
    <v>       0.62760149       0.37876242       0.26669213 </v>
    <v>       0.37119484       0.62782685       0.22339777 </v>
    <v>       0.62741334       0.87713459       0.25284030 </v>
    <v>       0.62719562       0.87934553       0.75036100 </v>
    <v>       0.81985215       0.37115925       0.75151299 </v>
    <v>       0.87978686       0.37186420       0.00867730 </v>
    <v>       0.85578676       0.39971777       0.50868942 </v>
    <v>       0.24799565       0.24837517       0.12344339 </v>
    <v>       0.16851514       0.09596543       0.99391100 </v>
    <v>       0.15277186       0.10597408       0.49960993 </v>
    <v>       0.16704419       0.61045126       0.00536825 </v>
    <v>       0.12375331       0.63051828       0.24761089 </v>
    <v>       0.39744787       0.15284122       0.50075243 </v>
    <v>       0.57478886       0.63969017       0.98274366 </v>
    <v>       0.72847567       0.76652379       0.61221965 </v>
    <v>       0.11997056       0.35531952       0.99469306 </v>
    <v>       0.10246899       0.34963747       0.49792452 </v>
    <v>       0.08213361       0.84295664       0.01209517 </v>
    <v>       0.73747025       0.20597464       0.60583969 </v>
    <v>       0.36685885       0.40638573       0.99295275 </v>
    <v>       0.26033088       0.75068994       0.37654845 </v>
    <v>       0.26567672       0.24214254       0.87449801 </v>
    <v>       0.99540960       0.50285884       0.37441865 </v>
    <v>       0.25431893       0.25329926       0.37566057 </v>
    <v>       0.51951398       0.98767719       0.38736198 </v>
    <v>       0.39850371       0.64902220       0.50511596 </v>
    <v>       0.62225822       0.37911762       0.95652928 </v>
    <v>       0.24809433       0.73729515       0.62645929 </v>
    <v>       0.87034856       0.62078358       0.00579215 </v>
    <v>       0.90389799       0.64870284       0.50679573 </v>
    <v>       0.94587780       0.04724096       0.07948170 </v>
    <v>       0.00550025       0.50278826       0.12695851 </v>
    <v>       0.00816554       0.49573914       0.62995408 </v>
    <v>       0.52237299       0.00144714       0.12259882 </v>
    <v>       0.53287594       0.48486431       0.12463743 </v>
    <v>       0.52244037       0.49788685       0.62415334 </v>
    <v>       0.97607750       0.99825738       0.38795656 </v>
    <v>       0.99330061       0.99308481       0.87349465 </v>
    <v>       0.35392444       0.89145635       0.50920876 </v>
    <v>       0.87840219       0.87238768       0.74382430 </v>
    <v>       0.63953825       0.60669652       0.48263507 </v>
    <v>       0.51401778       0.98123359       0.90059880 </v>
    <v>       0.47390073       0.51226585       0.36935303 </v>
    <v>       0.40735404       0.15274317       0.00788948 </v>
    <v>       0.76143110       0.78776892       0.38955275 </v>
    <v>       0.10699400       0.84526457       0.50067467 </v>
    <v>       0.53374637       0.00085758       0.61205482 </v>
    <v>       0.26308776       0.78090302       0.87563985 </v>
    <v>       0.76904146       0.22210787       0.39003127 </v>
    <v>       0.77640547       0.17532362       0.92318148 </v>
    <v>       0.75732507       0.77067788       0.88234462 </v>
    <v>       0.35371357       0.86025986       0.03708092 </v>
    <v>       0.25226323       0.25775852       0.62689481 </v>
    <v>       0.37868601       0.87428637       0.24579304 </v>
    <v>       0.59467949       0.35457848       0.48859684 </v>
    <v>       0.72017170       0.24779840       0.12248038 </v>
    <v>       0.73052629       0.79633570       0.09256054 </v>
    <v>       0.97776627       0.00432906       0.61156870 </v>
   </varray>
  </structure>
  <varray name="forces" >
   <v>       0.00046639       0.00772061      -0.00604056 </v>
   <v>      -0.00381253      -0.00410892       0.00092474 </v>
   <v>       0.00218733      -0.00748259       0.00276314 </v>
   <v>       0.00038974      -0.00037087       0.00156745 </v>
   <v>       0.00539102      -0.00804896       0.00158677 </v>
   <v>       0.00596106      -0.00689780       0.00090116 </v>
   <v>      -0.00080036       0.00040059       0.00122502 </v>
   <v>       0.00513507      -0.00523558       0.00273544 </v>
   <v>      -0.00589810      -0.00679145      -0.00644481 </v>
   <v>      -0.00028883       0.00079384      -0.00213804 </v>
   <v>       0.00162596       0.00427482      -0.01075870 </v>
   <v>      -0.00384981       0.00209423      -0.00297175 </v>
   <v>      -0.00104996      -0.00021582       0.00292394 </v>
   <v>       0.00110040      -0.01785331      -0.00366934 </v>
   <v>       0.00348241      -0.00475355       0.00526782 </v>
   <v>       0.00435396      -0.00328571       0.00474953 </v>
   <v>       0.00425387       0.00898636       0.00033099 </v>
   <v>      -0.00127670      -0.00898967      -0.00482924 </v>
   <v>      -0.00484050       0.00217938       0.00329676 </v>
   <v>       0.00400412      -0.00644774      -0.00901382 </v>
   <v>       0.00673661       0.00571754      -0.00914087 </v>
   <v>       0.00019711      -0.00221177       0.00247657 </v>
   <v>       0.00973675       0.00456275      -0.00719469 </v>
   <v>      -0.00226122       0.00252483       0.00182174 </v>
   <v>      -0.01029911       0.00190397      -0.00451124 </v>
   <v>       0.00362136      -0.00259564       0.00779309 </v>
   <v>       0.00425757       0.00113206      -0.00040942 </v>
   <v>       0.00314623      -0.00407389      -0.00236971 </v>
   <v>      -0.00479409       0.00571126      -0.00006897 </v>
   <v>       0.00530814      -0.00705889      -0.00574358 </v>
   <v>       0.00026056       0.00152957      -0.00423297 </v>
   <v>      -0.00591457       0.00189383      -0.00115656 </v>
   <v>       0.00367362       0.02771921      -0.00108935 </v>
   <v>      -0.04172315       0.01432588       0.00863353 </v>
   <v>       0.05003377       0.01500693       0.00021734 </v>
   <v>      -0.00923783       0.00198935       0.01809777 </v>
   <v>       0.01992874       0.00599574      -0.02513377 </v>
   <v>      -0.00497598      -0.00510563       0.00383668 </v>
   <v>       0.01232908      -0.00543341      -0.01278290 </v>
   <v>      -0.00092089      -0.00117998      -0.01222033 </v>
   <v>       0.00218726       0.00109227       0.00745766 </v>
   <v>      -0.00393468      -0.00185087       0.00083171 </v>
   <v>      -0.00619550      -0.00644950       0.00407379 </v>
   <v>       0.00552388      -0.00014013       0.00712783 </v>
   <v>      -0.00070591      -0.00376403       0.00844701 </v>
   <v>       0.00398619       0.00176171      -0.00394550 </v>
   <v>      -0.00708810       0.00000863       0.03088052 </v>
   <v>      -0.00548366       0.00212984      -0.00302752 </v>
   <v>      -0.01041433       0.00505747       0.00096729 </v>
   <v>      -0.00001863      -0.00508656      -0.00292027 </v>
   <v>      -0.00109765       0.01255902       0.01494187 </v>
   <v>      -0.00372328       0.00144316      -0.00266701 </v>
   <v>       0.00211732      -0.00624439      -0.00730630 </v>
   <v>       0.00433899      -0.00519089      -0.00308080 </v>
   <v>       0.00851316       0.00169767      -0.00512867 </v>
   <v>      -0.01190084       0.00433649       0.01054406 </v>
   <v>      -0.01438099      -0.01373851       0.00033666 </v>
   <v>      -0.00183293      -0.01042991       0.00732774 </v>
   <v>       0.00308496       0.00070431      -0.00917906 </v>
   <v>      -0.00913523      -0.00637897       0.00809609 </v>
   <v>       0.02018832       0.01329794      -0.00065693 </v>
   <v>      -0.00206588       0.00226976       0.00156058 </v>
   <v>      -0.02048420       0.00868636       0.00953753 </v>
   <v>      -0.00477988      -0.00212415      -0.00680033 </v>
   <v>      -0.00258013      -0.00454664       0.00698750 </v>
   <v>      -0.00024415      -0.00200316      -0.00160661 </v>
   <v>       0.00973733      -0.02014584       0.00063557 </v>
   <v>       0.01718326       0.00329974      -0.00849070 </v>
   <v>      -0.00308552       0.00163740      -0.00595353 </v>
   <v>      -0.00501732      -0.00208037      -0.00536590 </v>
   <v>       0.00570191       0.00329239       0.00415706 </v>
   <v>      -0.01711996       0.00178653      -0.00295421 </v>
   <v>      -0.00168642       0.00388709      -0.00022835 </v>
   <v>      -0.01497962      -0.01061299       0.00173082 </v>
   <v>      -0.00184990       0.00346206       0.00133753 </v>
   <v>      -0.03012505      -0.02255623       0.00401583 </v>
   <v>       0.00617579      -0.00191469       0.00828899 </v>
   <v>       0.01139158       0.00915246      -0.00291257 </v>
   <v>      -0.00162956       0.00009998      -0.00022876 </v>
   <v>       0.00338536       0.00285604      -0.01028240 </v>
   <v>       0.00353594      -0.00386196      -0.00028822 </v>
   <v>      -0.00824338       0.00860606      -0.00733982 </v>
   <v>      -0.00716369       0.01376385       0.01031606 </v>
   <v>       0.00381073       0.00041341       0.00717766 </v>
   <v>       0.02126935      -0.00536508       0.00272181 </v>
   <v>       0.00169583      -0.00249440       0.00304779 </v>
   <v>       0.01194019      -0.00608053      -0.00569751 </v>
   <v>       0.00166163      -0.00130791       0.00047717 </v>
   <v>       0.00050602       0.00731942       0.00339909 </v>
   <v>      -0.01004770      -0.00119075       0.00568816 </v>
   <v>       0.00940048       0.00648743       0.00292466 </v>
   <v>       0.00585430       0.00263128      -0.00760719 </v>
   <v>       0.00275755      -0.00181301      -0.00120430 </v>
   <v>      -0.00856691       0.00238243       0.00047760 </v>
   <v>      -0.00205070       0.02175494       0.00306367 </v>
   <v>      -0.00221060      -0.00296585      -0.01433375 </v>
   <v>       0.01329033       0.00805347       0.00653420 </v>
   <v>      -0.00190682      -0.00248285      -0.00588887 </v>
   <v>      -0.00214574       0.00323435      -0.00315658 </v>
   <v>      -0.00019139       0.00039934       0.00525033 </v>
   <v>       0.00482797      -0.00280597      -0.00518445 </v>
   <v>       0.00226728      -0.00551977      -0.00203833 </v>
   <v>      -0.00972563       0.00565824       0.01241730 </v>
   <v>       0.00018672      -0.00525527      -0.00306727 </v>
   <v>       0.00295721      -0.00069882       0.00119254 </v>
   <v>       0.00364427       0.00432048      -0.00192940 </v>
   <v>      -0.00287280       0.00856260      -0.00109924 </v>
   <v>       0.00691040      -0.00403596      -0.00443972 </v>
   <v>       0.00357889       0.00107695      -0.01041824 </v>
[...]
       <r>   -17.9605     0.0000    32.0000 </r>
       <r>   -17.8057     0.0000    32.0000 </r>
       <r>   -17.6510     0.0000    32.0000 </r>
       <r>   -17.4962     0.0000    32.0000 </r>
       <r>   -17.3414     0.0000    32.0000 </r>
       <r>   -17.1867     0.0000    32.0000 </r>
       <r>   -17.0319     0.0000    32.0000 </r>
       <r>   -16.8771     0.0000    32.0000 </r>
       <r>   -16.7224     0.0000    32.0000 </r>
       <r>   -16.5676     0.0000    32.0000 </r>
       <r>   -16.4128     0.0000    32.0000 </r>
       <r>   -16.2581     0.0000    32.0000 </r>
       <r>   -16.1033     0.0000    32.0000 </r>
       <r>   -15.9485     0.0000    32.0000 </r>
       <r>   -15.7938     0.0000    32.0000 </r>
       <r>   -15.6390     0.0000    32.0000 </r>
       <r>   -15.4842     0.0000    32.0000 </r>
       <r>   -15.3294     0.0252    32.0039 </r>
       <r>   -15.1747     9.2345    33.4331 </r>
       <r>   -15.0199    20.6736    36.6327 </r>
       <r>   -14.8651    42.5946    43.2250 </r>
       <r>   -14.7104    44.1273    50.0545 </r>
       <r>   -14.5556    39.2606    56.1307 </r>
       <r>   -14.4008    43.6849    62.8917 </r>
       <r>   -14.2461    62.7582    72.6047 </r>
       <r>   -14.0913    79.0954    84.8461 </r>
       <r>   -13.9365    74.9831    96.4510 </r>
       <r>   -13.7818    68.2338   107.0114 </r>
       <r>   -13.6270    41.7413   113.4716 </r>
       <r>   -13.4722    15.8611   115.9264 </r>
       <r>   -13.3175     0.4755   116.0000 </r>
       <r>   -13.1627     0.0018   116.0003 </r>
       <r>   -13.0079    10.2426   117.5855 </r>
       <r>   -12.8532    36.4972   123.2341 </r>
       <r>   -12.6984    73.0196   134.5352 </r>
       <r>   -12.5436    99.4223   149.9225 </r>
       <r>   -12.3889   107.1636   166.5080 </r>
       <r>   -12.2341   103.0486   182.4566 </r>
       <r>   -12.0793    91.8240   196.6680 </r>
       <r>   -11.9246    60.6276   206.0512 </r>
       <r>   -11.7698    19.0374   208.9976 </r>
       <r>   -11.6150     6.6061   210.0200 </r>
       <r>   -11.4603    12.4920   211.9533 </r>
       <r>   -11.3055     0.3016   212.0000 </r>
       <r>   -11.1507     0.0000   212.0000 </r>
       <r>   -10.9960     0.0000   212.0000 </r>
       <r>   -10.8412     0.0000   212.0000 </r>
       <r>   -10.6864     0.0000   212.0000 </r>
       <r>   -10.5317     0.0000   212.0000 </r>
       <r>   -10.3769     0.0000   212.0000 </r>
       <r>   -10.2221     0.0000   212.0000 </r>
       <r>   -10.0673     0.0000   212.0000 </r>
       <r>    -9.9126     0.0000   212.0000 </r>
       <r>    -9.7578     0.0000   212.0000 </r>
       <r>    -9.6030     0.0000   212.0000 </r>
       <r>    -9.4483     0.0000   212.0000 </r>
       <r>    -9.2935     0.0000   212.0000 </r>
       <r>    -9.1387     0.0000   212.0000 </r>
       <r>    -8.9840     0.0000   212.0000 </r>
       <r>    -8.8292     0.0000   212.0000 </r>
       <r>    -8.6744     0.0000   212.0000 </r>
       <r>    -8.5197     0.0000   212.0000 </r>
       <r>    -8.3649     0.0000   212.0000 </r>
       <r>    -8.2101     0.0000   212.0000 </r>
       <r>    -8.0554     0.0000   212.0000 </r>
       <r>    -7.9006     0.0000   212.0000 </r>
       <r>    -7.7458     0.0000   212.0000 </r>
       <r>    -7.5911     0.0000   212.0000 </r>
       <r>    -7.4363     0.0000   212.0000 </r>
       <r>    -7.2815     0.0000   212.0000 </r>
       <r>    -7.1268     0.0000   212.0000 </r>
       <r>    -6.9720     0.0000   212.0000 </r>
       <r>    -6.8172     0.0000   212.0000 </r>
       <r>    -6.6625     0.0000   212.0000 </r>
       <r>    -6.5077     0.0000   212.0000 </r>
       <r>    -6.3529     0.0000   212.0000 </r>
       <r>    -6.1982     0.0000   212.0000 </r>
       <r>    -6.0434     0.0000   212.0000 </r>
       <r>    -5.8886     0.0000   212.0000 </r>
       <r>    -5.7339     0.0000   212.0000 </r>
       <r>    -5.5791     0.0000   212.0000 </r>
       <r>    -5.4243     0.0000   212.0000 </r>
       <r>    -5.2695     0.0000   212.0000 </r>
       <r>    -5.1148     0.0000   212.0000 </r>
       <r>    -4.9600     0.0000   212.0000 </r>
       <r>    -4.8052     0.0000   212.0000 </r>
       <r>    -4.6505     0.0000   212.0000 </r>
       <r>    -4.4957     0.0000   212.0000 </r>
       <r>    -4.3409     0.0000   212.0000 </r>
       <r>    -4.1862     0.0000   212.0000 </r>
       <r>    -4.0314     0.0000   212.0000 </r>
       <r>    -3.8766     0.0000   212.0000 </r>
       <r>    -3.7219     0.0000   212.0000 </r>
       <r>    -3.5671     0.0000   212.0000 </r>
       <r>    -3.4123     0.0000   212.0000 </r>
       <r>    -3.2576     0.0000   212.0000 </r>
       <r>    -3.1028     0.0000   212.0000 </r>
       <r>    -2.9480     0.0000   212.0000 </r>
       <r>    -2.7933     0.0000   212.0000 </r>
       <r>    -2.6385     0.8388   212.1298 </r>
       <r>    -2.4837     7.4836   213.2880 </r>
       <r>    -2.3290    13.0679   215.3105 </r>
       <r>    -2.1742    20.1583   218.4304 </r>
       <r>    -2.0194    29.3946   222.9797 </r>
       <r>    -1.8647    20.6871   226.1814 </r>
       <r>    -1.7099    21.9080   229.5721 </r>
       <r>    -1.5551    35.5529   235.0745 </r>
       <r>    -1.4004    46.0228   242.1973 </r>
       <r>    -1.2456    55.7507   250.8257 </r>
       <r>    -1.0908    61.5830   260.3568 </r>
       <r>    -0.9361    72.3218   271.5499 </r>
       <r>    -0.7813    88.6534   285.2706 </r>
       <r>    -0.6265    95.1096   299.9905 </r>
       <r>    -0.4718    85.8980   313.2847 </r>
       <r>    -0.3170    65.8835   323.4813 </r>
       <r>    -0.1622    60.5004   332.8448 </r>
       <r>    -0.0074    59.5281   342.0579 </r>
       <r>     0.1473    57.4060   350.9425 </r>
       <r>     0.3021    67.5611   361.3987 </r>
       <r>     0.4569    63.0570   371.1579 </r>
       <r>     0.6116    59.2138   380.3223 </r>
       <r>     0.7664    57.0608   389.1535 </r>
       <r>     0.9212    55.2059   397.6976 </r>
       <r>     1.0759    58.8574   406.8068 </r>
       <r>     1.2307    65.5286   416.9485 </r>
       <r>     1.3855    70.9681   427.9320 </r>
       <r>     1.5402    72.6473   439.1755 </r>
       <r>     1.6950    68.3733   449.7575 </r>
       <r>     1.8498    44.7388   456.6816 </r>
       <r>     2.0045    28.1231   461.0341 </r>
       <r>     2.1593    13.0647   463.0561 </r>
       <r>     2.3141     6.0927   463.9991 </r>
       <r>     2.4688     0.0059   464.0000 </r>
       <r>     2.6236     0.0000   464.0000 </r>
       <r>     2.7784     0.0000   464.0000 </r>
       <r>     2.9331     0.0000   464.0000 </r>
       <r>     3.0879     0.0000   464.0000 </r>
       <r>     3.2427     0.0000   464.0000 </r>
       <r>     3.3974     0.0000   464.0000 </r>
       <r>     3.5522     0.0000   464.0000 </r>
       <r>     3.7070     0.0000   464.0000 </r>
       <r>     3.8617     0.0000   464.0000 </r>
       <r>     4.0165     0.0000   464.0000 </r>
       <r>     4.1713     3.0372   464.4701 </r>
       <r>     4.3260    24.1502   468.2077 </r>
       <r>     4.4808    66.0022   478.4227 </r>
       <r>     4.6356    75.8900   490.1681 </r>
       <r>     4.7904    64.8502   500.2048 </r>
       <r>     4.9451    79.2963   512.4773 </r>
       <r>     5.0999    85.8818   525.7690 </r>
       <r>     5.2547    78.5541   537.9267 </r>
       <r>     5.4094    70.5153   548.8401 </r>
       <r>     5.5642    61.1501   558.3042 </r>
       <r>     5.7190    73.4444   569.6710 </r>
       <r>     5.8737    78.7690   581.8619 </r>
       <r>     6.0285    69.7270   592.6534 </r>
       <r>     6.1833    57.0966   601.4901 </r>
       <r>     6.3380    24.4093   605.2679 </r>
       <r>     6.4928    17.3270   607.9495 </r>
       <r>     6.6476    11.0032   609.6525 </r>
       <r>     6.8023     7.6249   610.8326 </r>
       <r>     6.9571     5.4999   611.6838 </r>
       <r>     7.1119     8.2478   612.9603 </r>
       <r>     7.2666    13.4328   615.0392 </r>
       <r>     7.4214    11.6048   616.8353 </r>
       <r>     7.5762    17.8543   619.5986 </r>
       <r>     7.7309    19.8048   622.6637 </r>
       <r>     7.8857    28.0248   627.0010 </r>
       <r>     8.0405    26.4979   631.1020 </r>
       <r>     8.1952    31.2442   635.9376 </r>
       <r>     8.3500    26.8012   640.0856 </r>
       <r>     8.5048    21.8002   643.4596 </r>
       <r>     8.6595    22.6991   646.9727 </r>
       <r>     8.8143    33.7984   652.2036 </r>
       <r>     8.9691    32.1418   657.1781 </r>
       <r>     9.1238    38.4895   663.1350 </r>
       <r>     9.2786    39.1358   669.1920 </r>
       <r>     9.4334    45.4662   676.2287 </r>
       <r>     9.5881    48.5799   683.7473 </r>
       <r>     9.7429    49.5861   691.4216 </r>
       <r>     9.8977    50.9918   699.3135 </r>
       <r>    10.0525    53.5377   707.5994 </r>
       <r>    10.2072    54.6171   716.0523 </r>
       <r>    10.3620    56.5418   724.8032 </r>
       <r>    10.5168    50.3279   732.5923 </r>
       <r>    10.6715    52.6444   740.7400 </r>
       <r>    10.8263    54.3675   749.1543 </r>
       <r>    10.9811    53.9313   757.5011 </r>
       <r>    11.1358    54.1264   765.8781 </r>
       <r>    11.2906    13.7031   767.9989 </r>
       <r>    11.4454     0.0068   768.0000 </r>
       <r>    11.6001     0.0000   768.0000 </r>
       <r>    11.7549     0.0000   768.0000 </r>
       <r>    11.9097     0.0000   768.0000 </r>
       <r>    12.0644     0.0000   768.0000 </r>
       <r>    12.2192     0.0000   768.0000 </r>
       <r>    12.3740     0.0000   768.0000 </r>
       <r>    12.5287     0.0000   768.0000 </r>
       <r>    12.6835     0.0000   768.0000 </r>
       <r>    12.8383     0.0000   768.0000 </r>
       <r>    12.9930     0.0000   768.0000 </r>
       <r>    13.1478     0.0000   768.0000 </r>
       <r>    13.3026     0.0000   768.0000 </r>
      </set>
     </set>
    </array>
   </total>
  </dos>
 </calculation>
 <structure name="finalpos" >
  <crystal>
   <varray name="basis" >
    <v>      11.29040570      -0.04262253      -0.01270539 </v>
    <v>      -0.04251410      11.31424986       0.02102195 </v>
    <v>      -0.01864687       0.03016854      15.89245841 </v>
   </varray>
   <i name="volume">   2030.10330229 </i>
   <varray name="rec_basis" >
    <v>       0.08857215       0.00033262       0.00010329 </v>
    <v>       0.00033348       0.08838568      -0.00016739 </v>
    <v>       0.00007037      -0.00011665       0.06292323 </v>
   </varray>
  </crystal>
  <varray name="positions" >
   <v>       0.99775603       0.25100836       0.13273020 </v>
   <v>       0.01570125       0.26304359       0.63244131 </v>
   <v>       0.97981329       0.74426292       0.13341708 </v>
   <v>       0.01035346       0.74080358       0.63231283 </v>
   <v>       0.49491026       0.24620595       0.14048604 </v>
   <v>       0.48696860       0.26596703       0.62089756 </v>
   <v>       0.51384615       0.75607279       0.13565479 </v>
   <v>       0.49547313       0.74583135       0.62751366 </v>
   <v>       0.00109218       0.25353008       0.36572071 </v>
   <v>       0.98600511       0.25787660       0.87341275 </v>
   <v>       0.00515820       0.74169136       0.37406651 </v>
   <v>       0.99240835       0.74448958       0.86883091 </v>
   <v>       0.49020201       0.25732644       0.36837791 </v>
   <v>       0.49548288       0.23245325       0.87343584 </v>
   <v>       0.49790011       0.74226561       0.37105065 </v>
   <v>       0.49811122       0.76191335       0.86077758 </v>
   <v>       0.24344604       0.01035439       0.14071618 </v>
   <v>       0.24743828       0.00481018       0.62938176 </v>
   <v>       0.24132525       0.48587704       0.12916759 </v>
   <v>       0.24177893       0.50153634       0.62674620 </v>
   <v>       0.75180965       0.00728538       0.13755553 </v>
   <v>       0.75857090       0.98363530       0.63464653 </v>
   <v>       0.76130976       0.49127716       0.14016366 </v>
   <v>       0.76236423       0.51492587       0.62898439 </v>
   <v>       0.25019040       0.00112589       0.36702438 </v>
   <v>       0.25155872       0.00768946       0.85569762 </v>
   <v>       0.24647367       0.49532435       0.37235655 </v>
   <v>       0.23414495       0.49133479       0.87379642 </v>
   <v>       0.75156983       0.00601336       0.35821967 </v>
   <v>       0.74956481       0.99184274       0.86099365 </v>
   <v>       0.75415828       0.49495029       0.37003541 </v>
   <v>       0.76820244       0.50638135       0.86952208 </v>
   <v>       0.50332089       0.99755567       0.25166647 </v>
   <v>       0.00160407       0.99831743       0.74731319 </v>
   <v>       0.50530015       0.00099323       0.73343645 </v>
   <v>       0.25394997       0.25025309       0.99879065 </v>
   <v>       0.25264772       0.74003032       0.50329051 </v>
   <v>       0.49918990       0.50132570       0.25017175 </v>
   <v>       0.24831090       0.25918753       0.49880727 </v>
   <v>       0.00233606       0.50124745       0.25141449 </v>
   <v>       0.03140040       0.00030193       0.99059683 </v>
   <v>       0.00336428       0.49898560       0.50140979 </v>
   <v>       0.45889596       0.99483966       0.01109946 </v>
   <v>       0.46896495       0.00670462       0.49889331 </v>
   <v>       0.51365638       0.48343207       0.00864466 </v>
   <v>       0.49609412       0.50250557       0.49586802 </v>
   <v>       0.22719457       0.76418134       0.98927761 </v>
   <v>       0.75032653       0.74840961       0.75208014 </v>
   <v>       0.03346956       0.99201427       0.50017011 </v>
   <v>       0.25046893       0.74948747       0.25821632 </v>
   <v>       0.74436676       0.27748711       0.00626740 </v>
   <v>       0.74791256       0.24856008       0.25315030 </v>
   <v>       0.73404609       0.71474848       0.99394550 </v>
   <v>       0.75167193       0.75590921       0.26556359 </v>
   <v>       0.24733523       0.25070766       0.25096793 </v>
   <v>       0.00825853       0.50905149       0.75204367 </v>
   <v>       0.75475120       0.22623241       0.72577891 </v>
   <v>       0.24972289       0.75178609       0.74974949 </v>
   <v>       0.99545026       0.99978534       0.26179801 </v>
   <v>       0.74207678       0.28183635       0.49790084 </v>
   <v>       0.49177687       0.51371768       0.73925358 </v>
   <v>       0.00226506       0.49510034       0.00293201 </v>
   <v>       0.75611883       0.71973187       0.49892937 </v>
   <v>       0.25221004       0.25252250       0.75124757 </v>
   <v>       0.11936249       0.12202149       0.25266549 </v>
   <v>       0.35160262       0.39806584       0.50422203 </v>
   <v>       0.12841101       0.88439894       0.74071018 </v>
   <v>       0.12269450       0.12429611       0.74604627 </v>
   <v>       0.61879091       0.12733692       0.25878604 </v>
   <v>       0.62043210       0.13418286       0.75830940 </v>
   <v>       0.62455208       0.63307677       0.25552494 </v>
   <v>       0.62611737       0.61324216       0.76754732 </v>
   <v>       0.37797198       0.37448011       0.24364256 </v>
   <v>       0.41364032       0.36941096       0.76220885 </v>
   <v>       0.86766177       0.62619792       0.25006934 </v>
   <v>       0.38566075       0.87847258       0.73758931 </v>
   <v>       0.87466181       0.37295290       0.24884661 </v>
   <v>       0.12241434       0.63525759       0.76173422 </v>
   <v>       0.87653911       0.87548430       0.24174383 </v>
   <v>       0.99307634       0.49893749       0.87688378 </v>
   <v>       0.37514806       0.11691060       0.25325075 </v>
   <v>       0.37935189       0.11615197       0.74330236 </v>
   <v>       0.37313159       0.62407405       0.76112757 </v>
   <v>       0.87242579       0.12363707       0.24697304 </v>
   <v>       0.87686817       0.12123960       0.74765519 </v>
   <v>       0.12408705       0.37716756       0.25277918 </v>
   <v>       0.87110886       0.62775329       0.74645290 </v>
   <v>       0.12511072       0.37385665       0.75667553 </v>
   <v>       0.12719607       0.87746294       0.23951934 </v>
   <v>       0.15003496       0.60142436       0.49708462 </v>
   <v>       0.62764454       0.37880553       0.26670196 </v>
   <v>       0.37123026       0.62783718       0.22336654 </v>
   <v>       0.62740640       0.87715418       0.25283043 </v>
   <v>       0.62716588       0.87935950       0.75035761 </v>
   <v>       0.81981248       0.37122860       0.75151753 </v>
   <v>       0.87979580       0.37186644       0.00862149 </v>
   <v>       0.85583170       0.39974038       0.50871856 </v>
   <v>       0.24799485       0.24835721       0.12344458 </v>
   <v>       0.16850606       0.09598264       0.99390374 </v>
   <v>       0.15276193       0.10597208       0.49962494 </v>
   <v>       0.16707643       0.61044030       0.00535561 </v>
   <v>       0.12376705       0.63049217       0.24760224 </v>
   <v>       0.39741769       0.15283781       0.50080142 </v>
   <v>       0.57480010       0.63965784       0.98273024 </v>
   <v>       0.72849143       0.76653535       0.61224822 </v>
   <v>       0.11996281       0.35536868       0.99469134 </v>
   <v>       0.10249217       0.34963873       0.49791999 </v>
   <v>       0.08215178       0.84298053       0.01207504 </v>
   <v>       0.73748708       0.20595964       0.60582567 </v>
   <v>       0.36680293       0.40638494       0.99300992 </v>
   <v>       0.26032800       0.75061953       0.37656256 </v>
   <v>       0.26564846       0.24209768       0.87448189 </v>
   <v>       0.99541361       0.50287941       0.37442332 </v>
   <v>       0.25434033       0.25329083       0.37566839 </v>
   <v>       0.51953988       0.98774700       0.38737063 </v>
   <v>       0.39849915       0.64904813       0.50512253 </v>
   <v>       0.62222022       0.37911815       0.95652890 </v>
   <v>       0.24813542       0.73729999       0.62650393 </v>
   <v>       0.87036689       0.62081774       0.00578481 </v>
   <v>       0.90390676       0.64870580       0.50680672 </v>
   <v>       0.94597498       0.04723026       0.07957235 </v>
   <v>       0.00546165       0.50277028       0.12696718 </v>
   <v>       0.00820606       0.49576654       0.62994813 </v>
   <v>       0.52235188       0.00144426       0.12257937 </v>
   <v>       0.53289740       0.48485305       0.12463322 </v>
   <v>       0.52245090       0.49793769       0.62417756 </v>
   <v>       0.97610115       0.99825500       0.38795616 </v>
   <v>       0.99329560       0.99307544       0.87350331 </v>
   <v>       0.35390716       0.89144151       0.50919293 </v>
   <v>       0.87839799       0.87242520       0.74384582 </v>
   <v>       0.63958489       0.60669345       0.48262979 </v>
   <v>       0.51392631       0.98128196       0.90053481 </v>
   <v>       0.47387145       0.51224628       0.36934440 </v>
   <v>       0.40729812       0.15271774       0.00790214 </v>
   <v>       0.76141253       0.78777697       0.38954514 </v>
   <v>       0.10699654       0.84526077       0.50063339 </v>
   <v>       0.53376842       0.00080295       0.61203157 </v>
   <v>       0.26303833       0.78094380       0.87562539 </v>
   <v>       0.76901161       0.22205318       0.39004254 </v>
   <v>       0.77631845       0.17522210       0.92323868 </v>
   <v>       0.75728119       0.77062850       0.88234072 </v>
   <v>       0.35371013       0.86026448       0.03707269 </v>
   <v>       0.25226675       0.25782037       0.62690635 </v>
   <v>       0.37866801       0.87429793       0.24581112 </v>
   <v>       0.59466659       0.35458276       0.48862042 </v>
   <v>       0.72025281       0.24778696       0.12248131 </v>
   <v>       0.73054963       0.79636294       0.09255106 </v>
   <v>       0.97773598       0.00428571       0.61155190 </v>
  </varray>
 </structure>
</modeling>
