       N       E                     dE             d eps       ncg     rms          rms(c)
DAV:   1    -0.112134773433E+04   -0.11213E+04   -0.53263E-02 13312   0.532E-01    0.307E-02
RMM:   2    -0.112134773413E+04    0.20355E-06   -0.39135E-05  7118   0.104E-02    0.530E-02
RMM:   3    -0.112134773460E+04   -0.47493E-06   -0.12743E-05  6948   0.669E-03    0.660E-03
RMM:   4    -0.112134773556E+04   -0.95752E-06   -0.66824E-06  4655   0.314E-03    0.639E-03
RMM:   5    -0.112134773625E+04   -0.69143E-06   -0.39748E-06  4326   0.352E-03    0.758E-03
RMM:   6    -0.112134773685E+04   -0.59378E-06   -0.28050E-06  3301   0.235E-03    0.183E-03
RMM:   7    -0.112134773705E+04   -0.20710E-06   -0.15224E-06  2978   0.248E-03    0.162E-03
RMM:   8    -0.112134773723E+04   -0.17507E-06   -0.11111E-06  2656   0.209E-03
   1 F= -.11213477E+04 E0= -.11213477E+04  d E =-.112135E+04  mag=    40.0000
       N       E                     dE             d eps       ncg     rms          rms(c)
DAV:   1    -0.112134750175E+04    0.23530E-03   -0.73145E-01 12416   0.100E+00    0.426E-01
RMM:   2    -0.112134946431E+04   -0.19626E-02   -0.22882E-02 12292   0.207E-01    0.342E-01
RMM:   3    -0.112134950971E+04   -0.45409E-04   -0.13266E-03 12488   0.634E-02    0.184E-01
RMM:   4    -0.112134929906E+04    0.21065E-03   -0.42565E-04 10525   0.255E-02    0.105E-01
RMM:   5    -0.112134923647E+04    0.62590E-04   -0.18031E-04  8244   0.181E-02    0.458E-02
RMM:   6    -0.112134923799E+04   -0.15152E-05   -0.41087E-05  7260   0.106E-02    0.307E-02
RMM:   7    -0.112134923771E+04    0.27890E-06   -0.16619E-05  7047   0.614E-03    0.246E-02
RMM:   8    -0.112134923735E+04    0.36303E-06   -0.80920E-06  6462   0.453E-03
   2 F= -.11213492E+04 E0= -.11213492E+04  d E =-.150012E-02  mag=    40.0000
       N       E                     dE             d eps       ncg     rms          rms(c)
DAV:   1    -0.112134931769E+04   -0.79984E-04   -0.46162E-02 13200   0.251E-01    0.106E-01
RMM:   2    -0.112134944271E+04   -0.12501E-03   -0.14325E-03 12124   0.523E-02    0.842E-02
RMM:   3    -0.112134944326E+04   -0.54910E-06   -0.60110E-05  6948   0.158E-02    0.473E-02
RMM:   4    -0.112134943180E+04    0.11455E-04   -0.27700E-05  6796   0.792E-03    0.277E-02
RMM:   5    -0.112134942905E+04    0.27478E-05   -0.16745E-05  6138   0.549E-03    0.332E-02
RMM:   6    -0.112134942930E+04   -0.24270E-06   -0.59813E-06  5333   0.430E-03    0.801E-03
RMM:   7    -0.112134942944E+04   -0.14729E-06   -0.79287E-07  3068   0.200E-03    0.468E-03
RMM:   8    -0.112134942962E+04   -0.18034E-06   -0.35346E-07  2475   0.199E-03
   3 F= -.11213494E+04 E0= -.11213494E+04  d E =-.169240E-02  mag=    40.0000
       N       E                     dE             d eps       ncg     rms          rms(c)
DAV:   1    -0.112134935129E+04    0.78149E-04   -0.55206E-01 12592   0.883E-01    0.245E-01
RMM:   2    -0.112135083451E+04   -0.14832E-02   -0.14418E-02 12340   0.160E-01    0.158E-01
RMM:   3    -0.112135089461E+04   -0.60096E-04   -0.77334E-04 11069   0.535E-02    0.954E-02
RMM:   4    -0.112135084536E+04    0.49243E-04   -0.16391E-04  7431   0.171E-02    0.506E-02
RMM:   5    -0.112135083892E+04    0.64409E-05   -0.63637E-05  7128   0.110E-02    0.234E-02
RMM:   6    -0.112135084118E+04   -0.22560E-05   -0.19974E-05  7012   0.743E-03    0.189E-02
RMM:   7    -0.112135084230E+04   -0.11250E-05   -0.11063E-05  6556   0.457E-03    0.907E-03
RMM:   8    -0.112135084287E+04   -0.57204E-06   -0.57882E-06  5878   0.426E-03
   4 F= -.11213508E+04 E0= -.11213508E+04  d E =-.141325E-02  mag=    40.0000
