       N       E                     dE             d eps       ncg     rms          rms(c)
DAV:   1    -0.108909229759E+04   -0.10891E+04   -0.22861E-02 13496   0.354E-01    0.221E-02
RMM:   2    -0.108909229736E+04    0.23312E-06   -0.16230E-05  6637   0.705E-03    0.397E-02
RMM:   3    -0.108909229764E+04   -0.27980E-06   -0.54280E-06  5914   0.438E-03    0.362E-03
RMM:   4    -0.108909229786E+04   -0.22583E-06   -0.21225E-06  3481   0.216E-03    0.292E-03
RMM:   5    -0.108909229800E+04   -0.13383E-06   -0.12213E-06  3250   0.233E-03    0.319E-03
RMM:   6    -0.108909229809E+04   -0.88461E-07   -0.55280E-07  2311   0.180E-03    0.115E-03
RMM:   7    -0.108909229812E+04   -0.34284E-07   -0.33930E-07  2197   0.185E-03    0.450E-04
RMM:   8    -0.108909229814E+04   -0.23152E-07   -0.13551E-07  1854   0.172E-03
   1 F= -.10890923E+04 E0= -.10890923E+04  d E =-.108909E+04  mag=    60.0000
       N       E                     dE             d eps       ncg     rms          rms(c)
DAV:   1    -0.108909204688E+04    0.25124E-03   -0.78640E-01 12416   0.103E+00    0.400E-01
RMM:   2    -0.108909443558E+04   -0.23887E-02   -0.24231E-02 12338   0.215E-01    0.303E-01
RMM:   3    -0.108909452625E+04   -0.90677E-04   -0.14570E-03 12556   0.633E-02    0.176E-01
RMM:   4    -0.108909435748E+04    0.16877E-03   -0.30458E-04  9661   0.225E-02    0.102E-01
RMM:   5    -0.108909429754E+04    0.59944E-04   -0.20730E-04  8187   0.174E-02    0.377E-02
RMM:   6    -0.108909429943E+04   -0.18964E-05   -0.33884E-05  7180   0.107E-02    0.335E-02
RMM:   7    -0.108909429924E+04    0.19233E-06   -0.12235E-05  6895   0.462E-03    0.148E-02
RMM:   8    -0.108909429904E+04    0.20128E-06   -0.57474E-06  6256   0.428E-03
   2 F= -.10890943E+04 E0= -.10890943E+04  d E =-.200090E-02  mag=    60.0000
       N       E                     dE             d eps       ncg     rms          rms(c)
DAV:   1    -0.108909430034E+04   -0.10968E-05   -0.90261E-03 13488   0.110E-01    0.463E-02
RMM:   2    -0.108909432409E+04   -0.23753E-04   -0.24778E-04  8294   0.231E-02    0.408E-02
RMM:   3    -0.108909432722E+04   -0.31290E-05   -0.24582E-05  6485   0.978E-03    0.208E-02
RMM:   4    -0.108909432605E+04    0.11676E-05   -0.62428E-06  5754   0.388E-03    0.139E-02
RMM:   5    -0.108909432523E+04    0.82220E-06   -0.37481E-06  4882   0.322E-03    0.868E-03
RMM:   6    -0.108909432522E+04    0.13926E-07   -0.47726E-07  2657   0.202E-03    0.338E-03
RMM:   7    -0.108909432521E+04    0.93132E-08   -0.45591E-09  1309   0.181E-03    0.220E-03
RMM:   8    -0.108909432521E+04   -0.50932E-09   -0.41241E-08  1293   0.183E-03
   3 F= -.10890943E+04 E0= -.10890943E+04  d E =-.202706E-02  mag=    60.0000
       N       E                     dE             d eps       ncg     rms          rms(c)
DAV:   1    -0.108909372685E+04    0.59836E-03   -0.65846E-01 12400   0.946E-01    0.284E-01
RMM:   2    -0.108909559567E+04   -0.18688E-02   -0.17671E-02 12363   0.180E-01    0.193E-01
RMM:   3    -0.108909567231E+04   -0.76639E-04   -0.96806E-04 11681   0.561E-02    0.111E-01
RMM:   4    -0.108909559860E+04    0.73712E-04   -0.18399E-04  7663   0.180E-02    0.643E-02
RMM:   5    -0.108909558106E+04    0.17538E-04   -0.94237E-05  7272   0.127E-02    0.368E-02
RMM:   6    -0.108909558317E+04   -0.21091E-05   -0.23387E-05  6985   0.833E-03    0.229E-02
RMM:   7    -0.108909558400E+04   -0.83265E-06   -0.11269E-05  6537   0.461E-03    0.119E-02
RMM:   8    -0.108909558433E+04   -0.32641E-06   -0.57759E-06  5951   0.425E-03
   4 F= -.10890956E+04 E0= -.10890956E+04  d E =-.125912E-02  mag=    60.0000
       N       E                     dE             d eps       ncg     rms          rms(c)
DAV:   1    -0.108909553786E+04    0.46139E-04   -0.31620E-02 12896   0.207E-01    0.626E-02
RMM:   2    -0.108909562902E+04   -0.91161E-04   -0.86443E-04 11512   0.395E-02    0.430E-02
RMM:   3    -0.108909563175E+04   -0.27312E-05   -0.39673E-05  6994   0.127E-02    0.258E-02
RMM:   4    -0.108909562947E+04    0.22808E-05   -0.14181E-05  6777   0.550E-03    0.152E-02
RMM:   5    -0.108909562867E+04    0.80802E-06   -0.75532E-06  6077   0.405E-03    0.145E-02
RMM:   6    -0.108909562881E+04   -0.14121E-06   -0.29834E-06  4788   0.308E-03    0.563E-03
RMM:   7    -0.108909562889E+04   -0.83324E-07   -0.94660E-07  3115   0.215E-03    0.260E-03
RMM:   8    -0.108909562892E+04   -0.32102E-07   -0.54147E-07  2858   0.213E-03
   5 F= -.10890956E+04 E0= -.10890956E+04  d E =-.130371E-02  mag=    60.0000
       N       E                     dE             d eps       ncg     rms          rms(c)
DAV:   1    -0.108909493875E+04    0.69014E-03   -0.65632E-01 12688   0.942E-01    0.242E-01
RMM:   2    -0.108909670483E+04   -0.17661E-02   -0.16496E-02 12613   0.167E-01    0.154E-01
RMM:   3    -0.108909675639E+04   -0.51562E-04   -0.82818E-04 10993   0.531E-02    0.913E-02
RMM:   4    -0.108909671585E+04    0.40547E-04   -0.16293E-04  7447   0.170E-02    0.511E-02
RMM:   5    -0.108909670852E+04    0.73312E-05   -0.70891E-05  7123   0.115E-02    0.220E-02
RMM:   6    -0.108909671122E+04   -0.27014E-05   -0.21906E-05  6915   0.729E-03    0.153E-02
RMM:   7    -0.108909671228E+04   -0.10647E-05   -0.11651E-05  6359   0.461E-03    0.866E-03
RMM:   8    -0.108909671276E+04   -0.47598E-06   -0.64931E-06  5660   0.414E-03
   6 F= -.10890967E+04 E0= -.10890967E+04  d E =-.108384E-02  mag=    60.0000
