<?xml version="1.0" encoding="ISO-8859-1"?>
<modeling>
 <generator>
  <i name="program" type="string">vasp </i>
  <i name="version" type="string">5.4.1  </i>
  <i name="subversion" type="string">05Feb16 (build Jan 25 2017 20:16:33) complex                          parallel </i>
  <i name="platform" type="string">BWXE6 </i>
  <i name="date" type="string">2019 07 14 </i>
  <i name="time" type="string">00:46:15 </i>
 </generator>
 <incar>
  <i type="string" name="SYSTEM"> STF</i>
  <i type="string" name="PREC">normal</i>
  <i type="string" name="ALGO"> Fast</i>
  <i type="int" name="ISPIN">     2</i>
  <i type="int" name="NELM">    40</i>
  <i type="int" name="NELMIN">     8</i>
  <i type="int" name="IBRION">     2</i>
  <i name="EDIFF">      0.00010000</i>
  <i name="EDIFFG">     -0.03000000</i>
  <i type="int" name="NSW">    30</i>
  <i type="int" name="ISIF">     3</i>
  <i name="ENCUT">    520.00000000</i>
  <i type="int" name="NBANDS">   768</i>
  <v name="MAGMOM">      0.60000000      0.60000000      0.60000000      0.60000000      0.60000000      0.60000000      0.60000000      0.60000000      0.60000000      0.60000000      0.60000000      0.60000000      0.60000000      0.60000000      0.60000000      0.60000000      0.60000000      0.60000000      0.60000000      0.60000000
      0.60000000      0.60000000      0.60000000      0.60000000      0.60000000      0.60000000      0.60000000      0.60000000      0.60000000      0.60000000      0.60000000      0.60000000      0.60000000      0.60000000      0.60000000      0.60000000      0.60000000      0.60000000      0.60000000      0.60000000
      0.60000000      0.60000000      0.60000000      0.60000000      0.60000000      0.60000000      0.60000000      0.60000000      0.60000000      0.60000000      0.60000000      0.60000000      5.00000000      5.00000000      5.00000000      5.00000000      5.00000000      5.00000000      5.00000000      5.00000000
      5.00000000      5.00000000      5.00000000      5.00000000      0.60000000      0.60000000      0.60000000      0.60000000      0.60000000      0.60000000      0.60000000      0.60000000      0.60000000      0.60000000      0.60000000      0.60000000      0.60000000      0.60000000      0.60000000      0.60000000
      0.60000000      0.60000000      0.60000000      0.60000000      0.60000000      0.60000000      0.60000000      0.60000000      0.60000000      0.60000000      0.60000000      0.60000000      0.60000000      0.60000000      0.60000000      0.60000000      0.60000000      0.60000000      0.60000000      0.60000000
      0.60000000      0.60000000      0.60000000      0.60000000      0.60000000      0.60000000      0.60000000      0.60000000      0.60000000      0.60000000      0.60000000      0.60000000      0.60000000      0.60000000      0.60000000      0.60000000      0.60000000      0.60000000      0.60000000      0.60000000
      0.60000000      0.60000000      0.60000000      0.60000000      0.60000000      0.60000000      0.60000000      0.60000000      0.60000000      0.60000000      0.60000000      0.60000000      0.60000000      0.60000000      0.60000000      0.60000000      0.60000000      0.60000000      0.60000000      0.60000000
      0.60000000      0.60000000      0.60000000      0.60000000      0.60000000      0.60000000      0.60000000      0.60000000      0.60000000      0.60000000      0.60000000      0.60000000      0.60000000      0.60000000</v>
  <i type="string" name="LREAL"> Auto</i>
  <i type="int" name="ISMEAR">     0</i>
  <i name="SIGMA">      0.05000000</i>
  <i type="int" name="LMAXMIX">     4</i>
  <v type="int" name="KPOINT_BSE">    -1     0     0     0</v>
  <i type="int" name="NELM">    40</i>
  <i type="logical" name="LDAU"> T  </i>
  <v type="int" name="LDAUTYPE">     2</v>
  <v type="int" name="LDAUL">     0     2     2     0</v>
  <v name="LDAUU">      0.00000000      3.00000000      5.00000000      0.00000000</v>
  <v name="LDAUJ">      0.00000000      0.00000000      0.00000000      0.00000000</v>
  <i type="int" name="LDAUPRINT">     1</i>
 </incar>
 <kpoints>
  <generation param="Monkhorst-Pack">
   <v type="int" name="divisions">       2        2        2 </v>
   <v name="usershift">      0.00000000       0.00000000       0.00000000 </v>
   <v name="genvec1">      0.50000000       0.00000000       0.00000000 </v>
   <v name="genvec2">     -0.00000000       0.50000000       0.00000000 </v>
   <v name="genvec3">      0.00000000       0.00000000       0.50000000 </v>
   <v name="shift">      0.50000000       0.50000000       0.50000000 </v>
  </generation>
  <varray name="kpointlist" >
   <v>       0.25000000       0.25000000       0.25000000 </v>
   <v>      -0.25000000       0.25000000       0.25000000 </v>
   <v>       0.25000000      -0.25000000       0.25000000 </v>
   <v>      -0.25000000      -0.25000000       0.25000000 </v>
  </varray>
  <varray name="weights" >
   <v>       0.25000000 </v>
   <v>       0.25000000 </v>
   <v>       0.25000000 </v>
   <v>       0.25000000 </v>
  </varray>
 </kpoints>
 <parameters>
  <separator name="general" >
   <i type="string" name="SYSTEM">STF</i>
   <i type="logical" name="LCOMPAT"> F  </i>
  </separator>
  <separator name="electronic" >
   <i type="string" name="PREC">normal</i>
   <i name="ENMAX">    520.00000000</i>
   <i name="ENAUG">    605.39200000</i>
   <i name="EDIFF">      0.00010000</i>
   <i type="int" name="IALGO">    68</i>
   <i type="int" name="IWAVPR">    11</i>
   <i type="int" name="NBANDS">   768</i>
   <i name="NELECT">   1036.00000000</i>
   <i type="int" name="TURBO">     0</i>
   <i type="int" name="IRESTART">     0</i>
   <i type="int" name="NREBOOT">     0</i>
   <i type="int" name="NMIN">     0</i>
   <i name="EREF">      0.00000000</i>
   <separator name="electronic smearing" >
    <i type="int" name="ISMEAR">     0</i>
    <i name="SIGMA">      0.05000000</i>
    <i name="KSPACING">      0.50000000</i>
    <i type="logical" name="KGAMMA"> T  </i>
   </separator>
   <separator name="electronic projectors" >
    <i type="logical" name="LREAL"> T  </i>
    <v name="ROPT">     -0.00050000     -0.00050000     -0.00050000     -0.00050000</v>
    <i type="int" name="LMAXPAW">  -100</i>
    <i type="int" name="LMAXMIX">     4</i>
    <i type="logical" name="NLSPLINE"> F  </i>
   </separator>
   <separator name="electronic startup" >
    <i type="int" name="ISTART">     1</i>
    <i type="int" name="ICHARG">     0</i>
    <i type="int" name="INIWAV">     1</i>
   </separator>
   <separator name="electronic spin" >
    <i type="int" name="ISPIN">     2</i>
    <i type="logical" name="LNONCOLLINEAR"> F  </i>
    <v name="MAGMOM">      0.60000000      0.60000000      0.60000000      0.60000000      0.60000000      0.60000000      0.60000000      0.60000000      0.60000000      0.60000000      0.60000000      0.60000000      0.60000000      0.60000000      0.60000000      0.60000000      0.60000000      0.60000000      0.60000000      0.60000000
      0.60000000      0.60000000      0.60000000      0.60000000      0.60000000      0.60000000      0.60000000      0.60000000      0.60000000      0.60000000      0.60000000      0.60000000      0.60000000      0.60000000      0.60000000      0.60000000      0.60000000      0.60000000      0.60000000      0.60000000
      0.60000000      0.60000000      0.60000000      0.60000000      0.60000000      0.60000000      0.60000000      0.60000000      0.60000000      0.60000000      0.60000000      0.60000000      5.00000000      5.00000000      5.00000000      5.00000000      5.00000000      5.00000000      5.00000000      5.00000000
      5.00000000      5.00000000      5.00000000      5.00000000      0.60000000      0.60000000      0.60000000      0.60000000      0.60000000      0.60000000      0.60000000      0.60000000      0.60000000      0.60000000      0.60000000      0.60000000      0.60000000      0.60000000      0.60000000      0.60000000
      0.60000000      0.60000000      0.60000000      0.60000000      0.60000000      0.60000000      0.60000000      0.60000000      0.60000000      0.60000000      0.60000000      0.60000000      0.60000000      0.60000000      0.60000000      0.60000000      0.60000000      0.60000000      0.60000000      0.60000000
      0.60000000      0.60000000      0.60000000      0.60000000      0.60000000      0.60000000      0.60000000      0.60000000      0.60000000      0.60000000      0.60000000      0.60000000      0.60000000      0.60000000      0.60000000      0.60000000      0.60000000      0.60000000      0.60000000      0.60000000
      0.60000000      0.60000000      0.60000000      0.60000000      0.60000000      0.60000000      0.60000000      0.60000000      0.60000000      0.60000000      0.60000000      0.60000000      0.60000000      0.60000000      0.60000000      0.60000000      0.60000000      0.60000000      0.60000000      0.60000000
      0.60000000      0.60000000      0.60000000      0.60000000      0.60000000      0.60000000      0.60000000      0.60000000      0.60000000      0.60000000      0.60000000      0.60000000      0.60000000      0.60000000</v>
    <i name="NUPDOWN">     -1.00000000</i>
    <i type="logical" name="LSORBIT"> F  </i>
    <v name="SAXIS">      0.00000000      0.00000000      1.00000000</v>
    <i type="logical" name="LSPIRAL"> F  </i>
    <v name="QSPIRAL">      0.00000000      0.00000000      0.00000000</v>
    <i type="logical" name="LZEROZ"> F  </i>
   </separator>
   <separator name="electronic exchange-correlation" >
    <i type="logical" name="LASPH"> F  </i>
    <i type="logical" name="LMETAGGA"> F  </i>
   </separator>
   <separator name="electronic convergence" >
    <i type="int" name="NELM">    40</i>
    <i type="int" name="NELMDL">     0</i>
    <i type="int" name="NELMIN">     8</i>
    <i name="ENINI">    520.00000000</i>
    <separator name="electronic convergence detail" >
     <i type="logical" name="LDIAG"> T  </i>
     <i type="logical" name="LSUBROT"> F  </i>
     <i name="WEIMIN">      0.00100000</i>
     <i name="EBREAK">      0.00000003</i>
     <i name="DEPER">      0.30000000</i>
     <i type="int" name="NRMM">     4</i>
     <i name="TIME">      0.40000000</i>
    </separator>
   </separator>
   <separator name="electronic mixer" >
    <i name="AMIX">      0.40000000</i>
    <i name="BMIX">      1.00000000</i>
    <i name="AMIN">      0.10000000</i>
    <i name="AMIX_MAG">      1.60000000</i>
    <i name="BMIX_MAG">      1.00000000</i>
    <separator name="electronic mixer details" >
     <i type="int" name="IMIX">     4</i>
     <i type="logical" name="MIXFIRST"> F  </i>
     <i type="int" name="MAXMIX">   -45</i>
     <i name="WC">    100.00000000</i>
     <i type="int" name="INIMIX">     1</i>
     <i type="int" name="MIXPRE">     1</i>
     <i type="int" name="MREMOVE">     5</i>
    </separator>
   </separator>
   <separator name="electronic dipolcorrection" >
    <i type="logical" name="LDIPOL"> F  </i>
    <i type="logical" name="LMONO"> F  </i>
    <i type="int" name="IDIPOL">     0</i>
    <i name="EPSILON">      1.00000000</i>
    <v name="DIPOL">   -100.00000000   -100.00000000   -100.00000000</v>
    <i name="EFIELD">      0.00000000</i>
   </separator>
  </separator>
  <separator name="grids" >
   <i type="int" name="NGX">    64</i>
   <i type="int" name="NGY">    64</i>
   <i type="int" name="NGZ">    90</i>
   <i type="int" name="NGXF">   128</i>
   <i type="int" name="NGYF">   128</i>
   <i type="int" name="NGZF">   180</i>
   <i type="logical" name="ADDGRID"> F  </i>
  </separator>
  <separator name="ionic" >
   <i type="int" name="NSW">    30</i>
   <i type="int" name="IBRION">     2</i>
   <i type="int" name="ISIF">     3</i>
   <i name="PSTRESS">      0.00000000</i>
   <i name="EDIFFG">     -0.03000000</i>
   <i type="int" name="NFREE">     1</i>
   <i name="POTIM">      0.50000000</i>
   <i name="SMASS">     -3.00000000</i>
   <i name="SCALEE">      1.00000000</i>
  </separator>
  <separator name="ionic md" >
   <i name="TEBEG">      0.00010000</i>
   <i name="TEEND">      0.00010000</i>
   <i type="int" name="NBLOCK">     1</i>
   <i type="int" name="KBLOCK">    30</i>
   <i type="int" name="NPACO">   256</i>
   <i name="APACO">     16.00000000</i>
  </separator>
  <separator name="symmetry" >
   <i type="int" name="ISYM">     2</i>
   <i name="SYMPREC">      0.00001000</i>
  </separator>
  <separator name="dos" >
   <i type="logical" name="LORBIT"> F  </i>
   <v name="RWIGS">     -1.00000000     -1.00000000     -1.00000000     -1.00000000</v>
   <i type="int" name="NEDOS">   301</i>
   <i name="EMIN">     10.00000000</i>
   <i name="EMAX">    -10.00000000</i>
   <i name="EFERMI">      0.00000000</i>
  </separator>
  <separator name="writing" >
   <i type="int" name="NWRITE">     2</i>
   <i type="logical" name="LWAVE"> T  </i>
   <i type="logical" name="LCHARG"> T  </i>
   <i type="logical" name="LPARD"> F  </i>
   <i type="logical" name="LVTOT"> F  </i>
   <i type="logical" name="LVHAR"> F  </i>
   <i type="logical" name="LELF"> F  </i>
   <i type="logical" name="LOPTICS"> F  </i>
   <v name="STM">      0.00000000      0.00000000      0.00000000      0.00000000      0.00000000      0.00000000      0.00000000</v>
  </separator>
  <separator name="performance" >
   <i type="int" name="NPAR">     2</i>
   <i type="int" name="NSIM">     4</i>
   <i type="int" name="NBLK">    -1</i>
   <i type="logical" name="LPLANE"> T  </i>
   <i type="logical" name="LSCALAPACK"> T  </i>
   <i type="logical" name="LSCAAWARE"> F  </i>
   <i type="logical" name="LSCALU"> F  </i>
   <i type="logical" name="LASYNC"> F  </i>
   <i type="logical" name="LORBITALREAL"> F  </i>
  </separator>
  <separator name="miscellaneous" >
   <i type="int" name="IDIOT">     3</i>
   <i type="logical" name="LMUSIC"> F  </i>
   <v name="POMASS">     87.62000000     47.88000000     55.84700000     16.00000000</v>
   <v name="DARWINR">      0.00000000      0.00000000      0.00000000      0.00000000</v>
   <v name="DARWINV">      1.00000000      1.00000000      1.00000000      1.00000000</v>
   <i type="logical" name="LCORR"> T  </i>
  </separator>
  <i type="logical" name="GGA_COMPAT"> T  </i>
  <i type="logical" name="LBERRY"> F  </i>
  <i type="int" name="ICORELEVEL">     0</i>
  <i type="logical" name="LDAU"> T  </i>
  <v type="int" name="LDAUTYPE">     2</v>
  <v type="int" name="LDAUL">     0</v>
  <v name="LDAUU">      0.00000000</v>
  <v name="LDAUJ">      0.00000000</v>
  <i type="int" name="LDAUPRINT">     1</i>
  <i type="int" name="I_CONSTRAINED_M">     0</i>
  <separator name="electronic exchange-correlation" >
   <i type="string" name="GGA">--</i>
   <i type="int" name="VOSKOWN">     0</i>
   <i type="logical" name="LHFCALC"> F  </i>
   <i type="string" name="PRECFOCK"></i>
   <i type="logical" name="LSYMGRAD"> F  </i>
   <i type="logical" name="LHFONE"> F  </i>
   <i type="logical" name="LRHFCALC"> F  </i>
   <i type="logical" name="LTHOMAS"> F  </i>
   <i type="logical" name="LMODELHF"> F  </i>
   <i name="ENCUT4O">     -1.00000000</i>
   <i type="int" name="EXXOEP">     0</i>
   <i type="int" name="FOURORBIT">     0</i>
   <i name="AEXX">      0.00000000</i>
   <i name="HFALPHA">      0.00000000</i>
   <i name="MCALPHA">      0.00000000</i>
   <i name="ALDAX">      1.00000000</i>
   <i name="AGGAX">      1.00000000</i>
   <i name="ALDAC">      1.00000000</i>
   <i name="AGGAC">      1.00000000</i>
   <i type="int" name="NKREDX">     1</i>
   <i type="int" name="NKREDY">     1</i>
   <i type="int" name="NKREDZ">     1</i>
   <i type="logical" name="SHIFTRED"> F  </i>
   <i type="logical" name="ODDONLY"> F  </i>
   <i type="logical" name="EVENONLY"> F  </i>
   <i type="int" name="LMAXFOCK">     0</i>
   <i type="int" name="NMAXFOCKAE">     0</i>
   <i type="logical" name="LFOCKAEDFT"> F  </i>
   <i name="HFSCREEN">      0.00000000</i>
   <i name="HFSCREENC">      0.00000000</i>
   <i type="int" name="NBANDSGWLOW">     0</i>
  </separator>
  <separator name="vdW DFT" >
   <i type="logical" name="LUSE_VDW"> F  </i>
   <i name="Zab_VDW">     -0.84910000</i>
   <i name="PARAM1">      0.12340000</i>
   <i name="PARAM2">      1.00000000</i>
   <i name="PARAM3">      0.00000000</i>
  </separator>
  <separator name="model GW" >
   <i type="int" name="MODEL_GW">     0</i>
   <i name="MODEL_EPS0">      7.82573067</i>
   <i name="MODEL_ALPHA">      1.00000000</i>
  </separator>
  <separator name="linear response parameters" >
   <i type="logical" name="LEPSILON"> F  </i>
   <i type="logical" name="LRPA"> F  </i>
   <i type="logical" name="LNABLA"> F  </i>
   <i type="logical" name="LVEL"> F  </i>
   <i type="int" name="KINTER">     0</i>
   <i name="CSHIFT">      0.10000000</i>
   <i name="OMEGAMAX">     -1.00000000</i>
   <i name="DEG_THRESHOLD">      0.00200000</i>
  </separator>
  <separator name="orbital magnetization" >
   <i type="logical" name="NUCIND"> F  </i>
   <v name="MAGPOS">      0.00000000      0.00000000      0.00000000</v>
   <i type="logical" name="LNICSALL"> T  </i>
   <i type="logical" name="ORBITALMAG"> F  </i>
   <i type="logical" name="LMAGBLOCH"> F  </i>
   <i type="logical" name="LCHIMAG"> F  </i>
   <i type="logical" name="LGAUGE"> T  </i>
   <i type="int" name="MAGATOM">     0</i>
   <v name="MAGDIPOL">      0.00000000      0.00000000      0.00000000</v>
   <v name="AVECCONST">      0.00000000      0.00000000      0.00000000</v>
  </separator>
  <separator name="response functions" >
   <i type="logical" name="LADDER"> F  </i>
   <i type="logical" name="LFXC"> F  </i>
   <i type="logical" name="LHARTREE"> T  </i>
   <i type="int" name="IBSE">     0</i>
   <v type="int" name="KPOINT">    -1     0     0     0</v>
   <i type="logical" name="LTCTE"> F  </i>
   <i type="logical" name="LTETE"> F  </i>
   <i type="logical" name="LTRIPLET"> F  </i>
   <i type="logical" name="LFXCEPS"> F  </i>
   <i type="logical" name="LFXHEG"> F  </i>
   <i type="int" name="NATURALO">     0</i>
   <i type="logical" name="L2ORDER"> F  </i>
   <i type="logical" name="LUSEW"> F  </i>
   <i name="ENCUTGW">     -2.00000000</i>
   <i name="ENCUTGWSOFT">     -2.00000000</i>
   <i name="ENCUTLF">     -1.00000000</i>
   <i type="int" name="LMAXMP2">    -1</i>
   <i name="SCISSOR">      0.00000000</i>
   <i type="int" name="NOMEGA">     0</i>
   <i type="int" name="NOMEGAR">     0</i>
   <i type="int" name="NBANDSGW">    -1</i>
   <i type="int" name="NBANDSO">    -1</i>
   <i type="int" name="NBANDSV">    -1</i>
   <i type="int" name="NELM">    40</i>
   <i type="int" name="NELMHF">     1</i>
   <i type="int" name="DIM">     3</i>
   <i type="int" name="ANTIRES">     0</i>
   <i name="OMEGAMAX">    -30.00000000</i>
   <i name="OMEGAMIN">    -30.00000000</i>
   <i name="OMEGATL">   -200.00000000</i>
   <i type="int" name="OMEGAGRID">     0</i>
   <i name="CSHIFT">     -0.10000000</i>
   <i type="logical" name="SELFENERGY"> F  </i>
   <i type="logical" name="LSPECTRAL"> F  </i>
   <i type="logical" name="LSPECTRALGW"> F  </i>
   <i type="logical" name="LSINGLES"> F  </i>
   <i type="logical" name="LFERMIGW"> F  </i>
   <i type="logical" name="ODDONLYGW"> F  </i>
   <i type="logical" name="EVENONLYGW"> F  </i>
   <i type="int" name="NKREDLFX">     1</i>
   <i type="int" name="NKREDLFY">     1</i>
   <i type="int" name="NKREDLFZ">     1</i>
   <i type="int" name="MAXMEM">  1800</i>
   <i type="int" name="TELESCOPE">     0</i>
   <i type="int" name="TAUPAR">     1</i>
   <i type="int" name="OMEGAPAR">    -1</i>
   <i name="LAMBDA">      1.00000000</i>
  </separator>
  <separator name="External order field" >
   <i name="OFIELD_KAPPA">      0.00000000</i>
   <v name="OFIELD_K">      0.00000000      0.00000000      0.00000000</v>
   <i name="OFIELD_Q6_NEAR">      0.00000000</i>
   <i name="OFIELD_Q6_FAR">      0.00000000</i>
   <i name="OFIELD_A">      0.00000000</i>
  </separator>
 </parameters>
 <atominfo>
  <atoms>     154 </atoms>
  <types>       4 </types>
  <array name="atoms" >
   <dimension dim="1">ion</dimension>
   <field type="string">element</field>
   <field type="int">atomtype</field>
   <set>
    <rc><c>Sr</c><c>   1</c></rc>
    <rc><c>Sr</c><c>   1</c></rc>
    <rc><c>Sr</c><c>   1</c></rc>
    <rc><c>Sr</c><c>   1</c></rc>
    <rc><c>Sr</c><c>   1</c></rc>
    <rc><c>Sr</c><c>   1</c></rc>
    <rc><c>Sr</c><c>   1</c></rc>
    <rc><c>Sr</c><c>   1</c></rc>
    <rc><c>Sr</c><c>   1</c></rc>
    <rc><c>Sr</c><c>   1</c></rc>
    <rc><c>Sr</c><c>   1</c></rc>
    <rc><c>Sr</c><c>   1</c></rc>
    <rc><c>Sr</c><c>   1</c></rc>
    <rc><c>Sr</c><c>   1</c></rc>
    <rc><c>Sr</c><c>   1</c></rc>
    <rc><c>Sr</c><c>   1</c></rc>
    <rc><c>Sr</c><c>   1</c></rc>
    <rc><c>Sr</c><c>   1</c></rc>
    <rc><c>Sr</c><c>   1</c></rc>
    <rc><c>Sr</c><c>   1</c></rc>
    <rc><c>Sr</c><c>   1</c></rc>
    <rc><c>Sr</c><c>   1</c></rc>
    <rc><c>Sr</c><c>   1</c></rc>
    <rc><c>Sr</c><c>   1</c></rc>
    <rc><c>Sr</c><c>   1</c></rc>
    <rc><c>Sr</c><c>   1</c></rc>
    <rc><c>Sr</c><c>   1</c></rc>
    <rc><c>Sr</c><c>   1</c></rc>
    <rc><c>Sr</c><c>   1</c></rc>
    <rc><c>Sr</c><c>   1</c></rc>
    <rc><c>Sr</c><c>   1</c></rc>
    <rc><c>Sr</c><c>   1</c></rc>
    <rc><c>Ti</c><c>   2</c></rc>
    <rc><c>Ti</c><c>   2</c></rc>
    <rc><c>Ti</c><c>   2</c></rc>
    <rc><c>Ti</c><c>   2</c></rc>
    <rc><c>Ti</c><c>   2</c></rc>
    <rc><c>Ti</c><c>   2</c></rc>
    <rc><c>Ti</c><c>   2</c></rc>
    <rc><c>Ti</c><c>   2</c></rc>
    <rc><c>Ti</c><c>   2</c></rc>
    <rc><c>Ti</c><c>   2</c></rc>
    <rc><c>Ti</c><c>   2</c></rc>
    <rc><c>Ti</c><c>   2</c></rc>
    <rc><c>Ti</c><c>   2</c></rc>
    <rc><c>Ti</c><c>   2</c></rc>
    <rc><c>Ti</c><c>   2</c></rc>
    <rc><c>Ti</c><c>   2</c></rc>
    <rc><c>Ti</c><c>   2</c></rc>
    <rc><c>Ti</c><c>   2</c></rc>
    <rc><c>Ti</c><c>   2</c></rc>
    <rc><c>Ti</c><c>   2</c></rc>
    <rc><c>Fe</c><c>   3</c></rc>
    <rc><c>Fe</c><c>   3</c></rc>
    <rc><c>Fe</c><c>   3</c></rc>
    <rc><c>Fe</c><c>   3</c></rc>
    <rc><c>Fe</c><c>   3</c></rc>
    <rc><c>Fe</c><c>   3</c></rc>
    <rc><c>Fe</c><c>   3</c></rc>
    <rc><c>Fe</c><c>   3</c></rc>
    <rc><c>Fe</c><c>   3</c></rc>
    <rc><c>Fe</c><c>   3</c></rc>
    <rc><c>Fe</c><c>   3</c></rc>
    <rc><c>Fe</c><c>   3</c></rc>
    <rc><c>O </c><c>   4</c></rc>
    <rc><c>O </c><c>   4</c></rc>
    <rc><c>O </c><c>   4</c></rc>
    <rc><c>O </c><c>   4</c></rc>
    <rc><c>O </c><c>   4</c></rc>
    <rc><c>O </c><c>   4</c></rc>
    <rc><c>O </c><c>   4</c></rc>
    <rc><c>O </c><c>   4</c></rc>
    <rc><c>O </c><c>   4</c></rc>
    <rc><c>O </c><c>   4</c></rc>
    <rc><c>O </c><c>   4</c></rc>
    <rc><c>O </c><c>   4</c></rc>
    <rc><c>O </c><c>   4</c></rc>
    <rc><c>O </c><c>   4</c></rc>
    <rc><c>O </c><c>   4</c></rc>
    <rc><c>O </c><c>   4</c></rc>
    <rc><c>O </c><c>   4</c></rc>
    <rc><c>O </c><c>   4</c></rc>
    <rc><c>O </c><c>   4</c></rc>
    <rc><c>O </c><c>   4</c></rc>
    <rc><c>O </c><c>   4</c></rc>
    <rc><c>O </c><c>   4</c></rc>
    <rc><c>O </c><c>   4</c></rc>
    <rc><c>O </c><c>   4</c></rc>
    <rc><c>O </c><c>   4</c></rc>
    <rc><c>O </c><c>   4</c></rc>
    <rc><c>O </c><c>   4</c></rc>
    <rc><c>O </c><c>   4</c></rc>
    <rc><c>O </c><c>   4</c></rc>
    <rc><c>O </c><c>   4</c></rc>
    <rc><c>O </c><c>   4</c></rc>
    <rc><c>O </c><c>   4</c></rc>
    <rc><c>O </c><c>   4</c></rc>
    <rc><c>O </c><c>   4</c></rc>
    <rc><c>O </c><c>   4</c></rc>
    <rc><c>O </c><c>   4</c></rc>
    <rc><c>O </c><c>   4</c></rc>
    <rc><c>O </c><c>   4</c></rc>
    <rc><c>O </c><c>   4</c></rc>
    <rc><c>O </c><c>   4</c></rc>
    <rc><c>O </c><c>   4</c></rc>
    <rc><c>O </c><c>   4</c></rc>
    <rc><c>O </c><c>   4</c></rc>
    <rc><c>O </c><c>   4</c></rc>
    <rc><c>O </c><c>   4</c></rc>
    <rc><c>O </c><c>   4</c></rc>
    <rc><c>O </c><c>   4</c></rc>
    <rc><c>O </c><c>   4</c></rc>
    <rc><c>O </c><c>   4</c></rc>
    <rc><c>O </c><c>   4</c></rc>
    <rc><c>O </c><c>   4</c></rc>
    <rc><c>O </c><c>   4</c></rc>
    <rc><c>O </c><c>   4</c></rc>
    <rc><c>O </c><c>   4</c></rc>
    <rc><c>O </c><c>   4</c></rc>
    <rc><c>O </c><c>   4</c></rc>
    <rc><c>O </c><c>   4</c></rc>
    <rc><c>O </c><c>   4</c></rc>
    <rc><c>O </c><c>   4</c></rc>
    <rc><c>O </c><c>   4</c></rc>
    <rc><c>O </c><c>   4</c></rc>
    <rc><c>O </c><c>   4</c></rc>
    <rc><c>O </c><c>   4</c></rc>
    <rc><c>O </c><c>   4</c></rc>
    <rc><c>O </c><c>   4</c></rc>
    <rc><c>O </c><c>   4</c></rc>
    <rc><c>O </c><c>   4</c></rc>
    <rc><c>O </c><c>   4</c></rc>
    <rc><c>O </c><c>   4</c></rc>
    <rc><c>O </c><c>   4</c></rc>
    <rc><c>O </c><c>   4</c></rc>
    <rc><c>O </c><c>   4</c></rc>
    <rc><c>O </c><c>   4</c></rc>
    <rc><c>O </c><c>   4</c></rc>
    <rc><c>O </c><c>   4</c></rc>
    <rc><c>O </c><c>   4</c></rc>
    <rc><c>O </c><c>   4</c></rc>
    <rc><c>O </c><c>   4</c></rc>
    <rc><c>O </c><c>   4</c></rc>
    <rc><c>O </c><c>   4</c></rc>
    <rc><c>O </c><c>   4</c></rc>
    <rc><c>O </c><c>   4</c></rc>
    <rc><c>O </c><c>   4</c></rc>
    <rc><c>O </c><c>   4</c></rc>
    <rc><c>O </c><c>   4</c></rc>
    <rc><c>O </c><c>   4</c></rc>
    <rc><c>O </c><c>   4</c></rc>
    <rc><c>O </c><c>   4</c></rc>
    <rc><c>O </c><c>   4</c></rc>
    <rc><c>O </c><c>   4</c></rc>
   </set>
  </array>
  <array name="atomtypes" >
   <dimension dim="1">type</dimension>
   <field type="int">atomspertype</field>
   <field type="string">element</field>
   <field>mass</field>
   <field>valence</field>
   <field type="string">pseudopotential</field>
   <set>
    <rc><c>  32</c><c>Sr</c><c>     87.62000000</c><c>     10.00000000</c><c>  PAW_PBE Sr_sv 07Sep2000               </c></rc>
    <rc><c>  20</c><c>Ti</c><c>     47.88000000</c><c>      4.00000000</c><c>  PAW_PBE Ti 08Apr2002                  </c></rc>
    <rc><c>  12</c><c>Fe</c><c>     55.84700000</c><c>      8.00000000</c><c>  PAW_PBE Fe 06Sep2000                  </c></rc>
    <rc><c>  90</c><c>O </c><c>     16.00000000</c><c>      6.00000000</c><c>  PAW_PBE O 08Apr2002                   </c></rc>
   </set>
  </array>
 </atominfo>
 <structure name="initialpos" >
  <crystal>
   <varray name="basis" >
    <v>      11.21534548       0.09739693       0.00698220 </v>
    <v>       0.09742734      11.22395561      -0.00331376 </v>
    <v>       0.01040281      -0.00503834      15.95764239 </v>
   </varray>
   <i name="volume">   2008.60420423 </i>
   <varray name="rec_basis" >
    <v>       0.08917031      -0.00077404      -0.00005837 </v>
    <v>      -0.00077380       0.08910187       0.00002864 </v>
    <v>      -0.00003918       0.00001884       0.06266593 </v>
   </varray>
  </crystal>
  <varray name="positions" >
   <v>       0.00395136       0.24471013       0.12344689 </v>
   <v>       0.99598909       0.23755347       0.62263743 </v>
   <v>       0.00284938       0.75409895       0.12317675 </v>
   <v>       0.98274925       0.76846673       0.62405593 </v>
   <v>       0.49429451       0.23881941       0.12144086 </v>
   <v>       0.49965786       0.24623092       0.62162441 </v>
   <v>       0.49901765       0.76333901       0.11779747 </v>
   <v>       0.50955331       0.75678823       0.62318672 </v>
   <v>       0.99876447       0.23728745       0.37142970 </v>
   <v>       0.99842489       0.23672238       0.88204885 </v>
   <v>       0.00556480       0.75803580       0.37512647 </v>
   <v>       0.99642832       0.75688590       0.88532437 </v>
   <v>       0.49327390       0.23949161       0.37643137 </v>
   <v>       0.49796893       0.24758580       0.87762303 </v>
   <v>       0.50888785       0.76521876       0.37612933 </v>
   <v>       0.51082263       0.75675091       0.87958379 </v>
   <v>       0.24889222       0.00377748       0.12430494 </v>
   <v>       0.25129472       0.00721987       0.62220711 </v>
   <v>       0.24540421       0.49497748       0.12423749 </v>
   <v>       0.26639490       0.48223938       0.62340550 </v>
   <v>       0.75179847       0.99993529       0.12413235 </v>
   <v>       0.74558588       0.00192251       0.62420395 </v>
   <v>       0.76069519       0.49740857       0.11800123 </v>
   <v>       0.74097223       0.50008878       0.62442330 </v>
   <v>       0.25360402       0.00951259       0.37126296 </v>
   <v>       0.25305533       0.00832359       0.88233613 </v>
   <v>       0.24444019       0.48615306       0.37024264 </v>
   <v>       0.25101674       0.49449537       0.87961126 </v>
   <v>       0.74891726       0.00150139       0.37655678 </v>
   <v>       0.74917910       0.00038147       0.88077461 </v>
   <v>       0.74561091       0.49398768       0.37123936 </v>
   <v>       0.74056738       0.49702798       0.87989880 </v>
   <v>       0.50194332       0.00295765       0.75096649 </v>
   <v>       0.49716560       0.50206829       0.74777717 </v>
   <v>       0.00425682       0.99991409       0.25097909 </v>
   <v>       0.24808952       0.25160538       0.74993979 </v>
   <v>       0.25016316       0.24951080       0.00250754 </v>
   <v>       0.99944008       0.49958770       0.24760329 </v>
   <v>       0.74990892       0.25203233       0.24876094 </v>
   <v>       0.74941472       0.74954800       0.00481932 </v>
   <v>       0.75171011       0.75002762       0.49853681 </v>
   <v>       0.99954022       0.99712505       0.74964348 </v>
   <v>       0.24812236       0.24925308       0.49990093 </v>
   <v>       0.74640149       0.24823355       0.75129276 </v>
   <v>       0.74516999       0.24729776       0.49841518 </v>
   <v>       0.00114229       0.50003332       0.00091273 </v>
   <v>       0.25183881       0.74992399       0.00220503 </v>
   <v>       0.75273251       0.74969734       0.75012828 </v>
   <v>       0.74793691       0.24849115       0.00100385 </v>
   <v>       0.25598491       0.74852039       0.24560375 </v>
   <v>       0.49951572       0.99966197       0.24993147 </v>
   <v>       0.49749786       0.50283128       0.50092333 </v>
   <v>       0.26544995       0.76046371       0.76538065 </v>
   <v>       0.24581258       0.24795137       0.24923486 </v>
   <v>       0.99746984       0.99947429       0.49899945 </v>
   <v>       0.50236337       0.00234088       0.49985214 </v>
   <v>       0.26645466       0.75858474       0.48304818 </v>
   <v>       0.49805014       0.50290489       0.98951933 </v>
   <v>       0.00111959       0.99820899       0.00161303 </v>
   <v>       0.76480727       0.75940731       0.25158015 </v>
   <v>       0.50073669       0.00051516       0.99875303 </v>
   <v>       0.48747554       0.48939764       0.26329144 </v>
   <v>       0.98736702       0.48504292       0.76536321 </v>
   <v>       0.98469544       0.48977814       0.48474455 </v>
   <v>       0.11651293       0.12999597       0.24441460 </v>
   <v>       0.11566816       0.13365937       0.74086625 </v>
   <v>       0.12555251       0.62791196       0.23230296 </v>
   <v>       0.63966279       0.88436889       0.75522166 </v>
   <v>       0.61800898       0.13617861       0.23683849 </v>
   <v>       0.61450447       0.13711687       0.73804722 </v>
   <v>       0.86626515       0.11938947       0.25798788 </v>
   <v>       0.61715985       0.63350854       0.73935303 </v>
   <v>       0.63375312       0.41140894       0.23608517 </v>
   <v>       0.38075520       0.37016557       0.75696773 </v>
   <v>       0.38048179       0.86808632       0.26439838 </v>
   <v>       0.39021948       0.86711745       0.75965658 </v>
   <v>       0.88094290       0.36827152       0.26633646 </v>
   <v>       0.88300682       0.35820913       0.76051542 </v>
   <v>       0.62827328       0.61724243       0.01112150 </v>
   <v>       0.88685076       0.86157364       0.75884064 </v>
   <v>       0.36690601       0.11635550       0.25336945 </v>
   <v>       0.36337290       0.11831631       0.75190777 </v>
   <v>       0.39848469       0.62136276       0.22330303 </v>
   <v>       0.34920745       0.62005296       0.73170609 </v>
   <v>       0.13014843       0.61782191       0.01661607 </v>
   <v>       0.86326815       0.11101055       0.75310223 </v>
   <v>       0.86067489       0.61242169       0.24444124 </v>
   <v>       0.88890953       0.61308846       0.72817945 </v>
   <v>       0.12802816       0.38166016       0.25084940 </v>
   <v>       0.13085870       0.40377806       0.73607515 </v>
   <v>       0.13540635       0.87731450       0.25362812 </v>
   <v>       0.13570357       0.85819299       0.72996627 </v>
   <v>       0.62672176       0.86997539       0.25442064 </v>
   <v>       0.74279051       0.72319663       0.37569137 </v>
   <v>       0.98518745       0.99728354       0.62456154 </v>
   <v>       0.37025568       0.38213344       0.99979666 </v>
   <v>       0.36823931       0.38437986       0.48978187 </v>
   <v>       0.37078072       0.87487083       0.98529342 </v>
   <v>       0.37126554       0.88451177       0.49106476 </v>
   <v>       0.86867141       0.38302803       0.98537975 </v>
   <v>       0.86495661       0.37767160       0.48887129 </v>
   <v>       0.86760346       0.87746751       0.99466485 </v>
   <v>       0.87210940       0.87320762       0.48893408 </v>
   <v>       0.13172793       0.12009558       0.00412023 </v>
   <v>       0.12756005       0.12457359       0.51115604 </v>
   <v>       0.88652620       0.87020603       0.26197043 </v>
   <v>       0.38053626       0.36635682       0.25583835 </v>
   <v>       0.63250700       0.12141228       0.01330025 </v>
   <v>       0.62858117       0.12337796       0.51094314 </v>
   <v>       0.49620822       0.52065336       0.87025798 </v>
   <v>       0.11775136       0.36894037       0.99732946 </v>
   <v>       0.11910785       0.39801445       0.51765176 </v>
   <v>       0.11986929       0.86637082       0.00098042 </v>
   <v>       0.12284691       0.83335219       0.51305661 </v>
   <v>       0.61602736       0.37253563       0.00686202 </v>
   <v>       0.61519455       0.37325618       0.49740685 </v>
   <v>       0.62163864       0.86868393       0.99420973 </v>
   <v>       0.62445505       0.86910189       0.49628338 </v>
   <v>       0.37926141       0.13116336       0.99556806 </v>
   <v>       0.37782155       0.13504837       0.49850842 </v>
   <v>       0.88033301       0.13086992       0.99608820 </v>
   <v>       0.87463736       0.12977438       0.49218747 </v>
   <v>       0.88186623       0.63053084       0.00661436 </v>
   <v>       0.89571873       0.62538431       0.51864346 </v>
   <v>       0.99155447       0.99336284       0.12849670 </v>
   <v>       0.98967884       0.47942466       0.12450817 </v>
   <v>       0.49762648       0.48284449       0.62541675 </v>
   <v>       0.48807786       0.99037384       0.12597149 </v>
   <v>       0.49304681       0.99035745       0.62707732 </v>
   <v>       0.38075591       0.62651545       0.01422450 </v>
   <v>       0.62708955       0.62151333       0.51329015 </v>
   <v>       0.01980691       0.00097845       0.37748515 </v>
   <v>       0.01769775       0.99804116       0.87010902 </v>
   <v>       0.01737068       0.52641542       0.37307016 </v>
   <v>       0.63273151       0.38736186       0.75395454 </v>
   <v>       0.51389658       0.01266153       0.37381022 </v>
   <v>       0.51251827       0.01531559       0.87292892 </v>
   <v>       0.50406554       0.53055840       0.37782078 </v>
   <v>       0.23195981       0.25009073       0.37902825 </v>
   <v>       0.23737007       0.25284221       0.87188375 </v>
   <v>       0.24855740       0.71539585       0.36931338 </v>
   <v>       0.36210700       0.63020279       0.52323078 </v>
   <v>       0.72511048       0.24925968       0.37193073 </v>
   <v>       0.73283261       0.24132549       0.87531774 </v>
   <v>       0.01655284       0.52530463       0.87656261 </v>
   <v>       0.75102172       0.72703110       0.87270238 </v>
   <v>       0.25377326       0.25386888       0.12390767 </v>
   <v>       0.26202566       0.25545257       0.62570073 </v>
   <v>       0.26020837       0.77266918       0.12523174 </v>
   <v>       0.23392813       0.72513005       0.87734621 </v>
   <v>       0.76950690       0.26027004       0.12595248 </v>
   <v>       0.75917990       0.26118097       0.62484191 </v>
   <v>       0.74595341       0.75541236       0.12773372 </v>
   <v>       0.75224589       0.76550125       0.62548395 </v>
  </varray>
 </structure>
 <calculation>
  <scstep>
   <time name="dav">  304.72  304.74</time>
   <time name="total">  308.48  308.58</time>
   <energy>
    <i name="alphaZ">   5612.85771882 </i>
    <i name="ewald"> -61528.93742281 </i>
    <i name="hartreedc"> -17017.11853373 </i>
    <i name="XCdc">   3074.83299446 </i>
    <i name="pawpsdc"> 113955.58809674 </i>
    <i name="pawaedc">-113008.08203645 </i>
    <i name="eentropy">     -0.00000000 </i>
    <i name="bandstr">  -7095.04507615 </i>
    <i name="atom">  74916.81196153 </i>
    <i name="e_fr_energy">  -1089.09229759 </i>
    <i name="e_wo_entrp">  -1089.09229759 </i>
    <i name="e_0_energy">  -1089.09229759 </i>
   </energy>
  </scstep>
  <scstep>
   <time name="diag">   33.34   33.37</time>
   <time name="diis">   30.37   30.38</time>
   <time name="orth">   18.93   18.93</time>
   <time name="total">   86.35   86.44</time>
   <energy>
    <i name="e_fr_energy">  -1089.09229736 </i>
    <i name="e_wo_entrp">  -1089.09229736 </i>
    <i name="e_0_energy">  -1089.09229736 </i>
   </energy>
  </scstep>
  <scstep>
   <time name="diag">   33.35   33.35</time>
   <time name="diis">   28.79   28.80</time>
   <time name="orth">   19.00   19.00</time>
   <time name="total">   84.89   84.97</time>
   <energy>
    <i name="e_fr_energy">  -1089.09229764 </i>
    <i name="e_wo_entrp">  -1089.09229764 </i>
    <i name="e_0_energy">  -1089.09229764 </i>
   </energy>
  </scstep>
  <scstep>
   <time name="diag">   33.38   33.40</time>
   <time name="diis">   25.02   25.03</time>
   <time name="orth">   18.90   18.90</time>
   <time name="total">   81.06   81.15</time>
   <energy>
    <i name="e_fr_energy">  -1089.09229786 </i>
    <i name="e_wo_entrp">  -1089.09229786 </i>
    <i name="e_0_energy">  -1089.09229786 </i>
   </energy>
  </scstep>
  <scstep>
   <time name="diag">   33.38   33.40</time>
   <time name="diis">   24.72   24.74</time>
   <time name="orth">   18.91   18.91</time>
   <time name="total">   80.78   80.96</time>
   <energy>
    <i name="e_fr_energy">  -1089.09229800 </i>
    <i name="e_wo_entrp">  -1089.09229800 </i>
    <i name="e_0_energy">  -1089.09229800 </i>
   </energy>
  </scstep>
  <scstep>
   <time name="diag">   33.40   33.46</time>
   <time name="diis">   23.31   23.32</time>
   <time name="orth">   18.96   18.97</time>
   <time name="total">   79.42   79.58</time>
   <energy>
    <i name="e_fr_energy">  -1089.09229809 </i>
    <i name="e_wo_entrp">  -1089.09229809 </i>
    <i name="e_0_energy">  -1089.09229809 </i>
   </energy>
  </scstep>
  <scstep>
   <time name="diag">   33.45   33.46</time>
   <time name="diis">   23.04   23.05</time>
   <time name="orth">   18.92   18.92</time>
   <time name="total">   79.17   79.26</time>
   <energy>
    <i name="e_fr_energy">  -1089.09229812 </i>
    <i name="e_wo_entrp">  -1089.09229812 </i>
    <i name="e_0_energy">  -1089.09229812 </i>
   </energy>
  </scstep>
  <scstep>
   <time name="diag">   33.43   33.44</time>
   <time name="diis">   22.57   22.58</time>
   <time name="orth">   18.94   18.95</time>
   <time name="total">   75.52   75.64</time>
   <energy>
    <i name="alphaZ">   5612.85771882 </i>
    <i name="ewald"> -61528.93742281 </i>
    <i name="hartreedc"> -17017.10345777 </i>
    <i name="XCdc">   3074.83299723 </i>
    <i name="pawpsdc"> 113954.98666780 </i>
    <i name="pawaedc">-113007.47178993 </i>
    <i name="eentropy">     -0.00000000 </i>
    <i name="bandstr">  -7095.06897301 </i>
    <i name="atom">  74916.81196153 </i>
    <i name="e_fr_energy">  -1089.09229814 </i>
    <i name="e_wo_entrp">  -1089.09229814 </i>
    <i name="e_0_energy">  -1089.09229814 </i>
   </energy>
  </scstep>
  <structure>
   <crystal>
    <varray name="basis" >
     <v>      11.21534548       0.09739693       0.00698220 </v>
     <v>       0.09742734      11.22395561      -0.00331376 </v>
     <v>       0.01040281      -0.00503834      15.95764239 </v>
    </varray>
    <i name="volume">   2008.60420423 </i>
    <varray name="rec_basis" >
     <v>       0.08917031      -0.00077404      -0.00005837 </v>
     <v>      -0.00077380       0.08910187       0.00002864 </v>
     <v>      -0.00003918       0.00001884       0.06266593 </v>
    </varray>
   </crystal>
   <varray name="positions" >
    <v>       0.00395136       0.24471013       0.12344689 </v>
    <v>       0.99598909       0.23755347       0.62263743 </v>
    <v>       0.00284938       0.75409895       0.12317675 </v>
    <v>       0.98274925       0.76846673       0.62405593 </v>
    <v>       0.49429451       0.23881941       0.12144086 </v>
    <v>       0.49965786       0.24623092       0.62162441 </v>
    <v>       0.49901765       0.76333901       0.11779747 </v>
    <v>       0.50955331       0.75678823       0.62318672 </v>
    <v>       0.99876447       0.23728745       0.37142970 </v>
    <v>       0.99842489       0.23672238       0.88204885 </v>
    <v>       0.00556480       0.75803580       0.37512647 </v>
    <v>       0.99642832       0.75688590       0.88532437 </v>
    <v>       0.49327390       0.23949161       0.37643137 </v>
    <v>       0.49796893       0.24758580       0.87762303 </v>
    <v>       0.50888785       0.76521876       0.37612933 </v>
    <v>       0.51082263       0.75675091       0.87958379 </v>
    <v>       0.24889222       0.00377748       0.12430494 </v>
    <v>       0.25129472       0.00721987       0.62220711 </v>
    <v>       0.24540421       0.49497748       0.12423749 </v>
    <v>       0.26639490       0.48223938       0.62340550 </v>
    <v>       0.75179847       0.99993529       0.12413235 </v>
    <v>       0.74558588       0.00192251       0.62420395 </v>
    <v>       0.76069519       0.49740857       0.11800123 </v>
    <v>       0.74097223       0.50008878       0.62442330 </v>
    <v>       0.25360402       0.00951259       0.37126296 </v>
    <v>       0.25305533       0.00832359       0.88233613 </v>
    <v>       0.24444019       0.48615306       0.37024264 </v>
    <v>       0.25101674       0.49449537       0.87961126 </v>
    <v>       0.74891726       0.00150139       0.37655678 </v>
    <v>       0.74917910       0.00038147       0.88077461 </v>
    <v>       0.74561091       0.49398768       0.37123936 </v>
    <v>       0.74056738       0.49702798       0.87989880 </v>
    <v>       0.50194332       0.00295765       0.75096649 </v>
    <v>       0.49716560       0.50206829       0.74777717 </v>
    <v>       0.00425682       0.99991409       0.25097909 </v>
    <v>       0.24808952       0.25160538       0.74993979 </v>
    <v>       0.25016316       0.24951080       0.00250754 </v>
    <v>       0.99944008       0.49958770       0.24760329 </v>
    <v>       0.74990892       0.25203233       0.24876094 </v>
    <v>       0.74941472       0.74954800       0.00481932 </v>
    <v>       0.75171011       0.75002762       0.49853681 </v>
    <v>       0.99954022       0.99712505       0.74964348 </v>
    <v>       0.24812236       0.24925308       0.49990093 </v>
    <v>       0.74640149       0.24823355       0.75129276 </v>
    <v>       0.74516999       0.24729776       0.49841518 </v>
    <v>       0.00114229       0.50003332       0.00091273 </v>
    <v>       0.25183881       0.74992399       0.00220503 </v>
    <v>       0.75273251       0.74969734       0.75012828 </v>
    <v>       0.74793691       0.24849115       0.00100385 </v>
    <v>       0.25598491       0.74852039       0.24560375 </v>
    <v>       0.49951572       0.99966197       0.24993147 </v>
    <v>       0.49749786       0.50283128       0.50092333 </v>
    <v>       0.26544995       0.76046371       0.76538065 </v>
    <v>       0.24581258       0.24795137       0.24923486 </v>
    <v>       0.99746984       0.99947429       0.49899945 </v>
    <v>       0.50236337       0.00234088       0.49985214 </v>
    <v>       0.26645466       0.75858474       0.48304818 </v>
    <v>       0.49805014       0.50290489       0.98951933 </v>
    <v>       0.00111959       0.99820899       0.00161303 </v>
    <v>       0.76480727       0.75940731       0.25158015 </v>
    <v>       0.50073669       0.00051516       0.99875303 </v>
    <v>       0.48747554       0.48939764       0.26329144 </v>
    <v>       0.98736702       0.48504292       0.76536321 </v>
    <v>       0.98469544       0.48977814       0.48474455 </v>
    <v>       0.11651293       0.12999597       0.24441460 </v>
    <v>       0.11566816       0.13365937       0.74086625 </v>
    <v>       0.12555251       0.62791196       0.23230296 </v>
    <v>       0.63966279       0.88436889       0.75522166 </v>
    <v>       0.61800898       0.13617861       0.23683849 </v>
    <v>       0.61450447       0.13711687       0.73804722 </v>
    <v>       0.86626515       0.11938947       0.25798788 </v>
    <v>       0.61715985       0.63350854       0.73935303 </v>
    <v>       0.63375312       0.41140894       0.23608517 </v>
    <v>       0.38075520       0.37016557       0.75696773 </v>
    <v>       0.38048179       0.86808632       0.26439838 </v>
    <v>       0.39021948       0.86711745       0.75965658 </v>
    <v>       0.88094290       0.36827152       0.26633646 </v>
    <v>       0.88300682       0.35820913       0.76051542 </v>
    <v>       0.62827328       0.61724243       0.01112150 </v>
    <v>       0.88685076       0.86157364       0.75884064 </v>
    <v>       0.36690601       0.11635550       0.25336945 </v>
    <v>       0.36337290       0.11831631       0.75190777 </v>
    <v>       0.39848469       0.62136276       0.22330303 </v>
    <v>       0.34920745       0.62005296       0.73170609 </v>
    <v>       0.13014843       0.61782191       0.01661607 </v>
    <v>       0.86326815       0.11101055       0.75310223 </v>
    <v>       0.86067489       0.61242169       0.24444124 </v>
    <v>       0.88890953       0.61308846       0.72817945 </v>
    <v>       0.12802816       0.38166016       0.25084940 </v>
    <v>       0.13085870       0.40377806       0.73607515 </v>
    <v>       0.13540635       0.87731450       0.25362812 </v>
    <v>       0.13570357       0.85819299       0.72996627 </v>
    <v>       0.62672176       0.86997539       0.25442064 </v>
    <v>       0.74279051       0.72319663       0.37569137 </v>
    <v>       0.98518745       0.99728354       0.62456154 </v>
    <v>       0.37025568       0.38213344       0.99979666 </v>
    <v>       0.36823931       0.38437986       0.48978187 </v>
    <v>       0.37078072       0.87487083       0.98529342 </v>
    <v>       0.37126554       0.88451177       0.49106476 </v>
    <v>       0.86867141       0.38302803       0.98537975 </v>
    <v>       0.86495661       0.37767160       0.48887129 </v>
    <v>       0.86760346       0.87746751       0.99466485 </v>
    <v>       0.87210940       0.87320762       0.48893408 </v>
    <v>       0.13172793       0.12009558       0.00412023 </v>
    <v>       0.12756005       0.12457359       0.51115604 </v>
    <v>       0.88652620       0.87020603       0.26197043 </v>
    <v>       0.38053626       0.36635682       0.25583835 </v>
    <v>       0.63250700       0.12141228       0.01330025 </v>
    <v>       0.62858117       0.12337796       0.51094314 </v>
    <v>       0.49620822       0.52065336       0.87025798 </v>
    <v>       0.11775136       0.36894037       0.99732946 </v>
    <v>       0.11910785       0.39801445       0.51765176 </v>
    <v>       0.11986929       0.86637082       0.00098042 </v>
    <v>       0.12284691       0.83335219       0.51305661 </v>
    <v>       0.61602736       0.37253563       0.00686202 </v>
    <v>       0.61519455       0.37325618       0.49740685 </v>
    <v>       0.62163864       0.86868393       0.99420973 </v>
    <v>       0.62445505       0.86910189       0.49628338 </v>
    <v>       0.37926141       0.13116336       0.99556806 </v>
    <v>       0.37782155       0.13504837       0.49850842 </v>
    <v>       0.88033301       0.13086992       0.99608820 </v>
    <v>       0.87463736       0.12977438       0.49218747 </v>
    <v>       0.88186623       0.63053084       0.00661436 </v>
    <v>       0.89571873       0.62538431       0.51864346 </v>
    <v>       0.99155447       0.99336284       0.12849670 </v>
    <v>       0.98967884       0.47942466       0.12450817 </v>
    <v>       0.49762648       0.48284449       0.62541675 </v>
    <v>       0.48807786       0.99037384       0.12597149 </v>
    <v>       0.49304681       0.99035745       0.62707732 </v>
    <v>       0.38075591       0.62651545       0.01422450 </v>
    <v>       0.62708955       0.62151333       0.51329015 </v>
    <v>       0.01980691       0.00097845       0.37748515 </v>
    <v>       0.01769775       0.99804116       0.87010902 </v>
    <v>       0.01737068       0.52641542       0.37307016 </v>
    <v>       0.63273151       0.38736186       0.75395454 </v>
    <v>       0.51389658       0.01266153       0.37381022 </v>
    <v>       0.51251827       0.01531559       0.87292892 </v>
    <v>       0.50406554       0.53055840       0.37782078 </v>
    <v>       0.23195981       0.25009073       0.37902825 </v>
    <v>       0.23737007       0.25284221       0.87188375 </v>
    <v>       0.24855740       0.71539585       0.36931338 </v>
    <v>       0.36210700       0.63020279       0.52323078 </v>
    <v>       0.72511048       0.24925968       0.37193073 </v>
    <v>       0.73283261       0.24132549       0.87531774 </v>
    <v>       0.01655284       0.52530463       0.87656261 </v>
    <v>       0.75102172       0.72703110       0.87270238 </v>
    <v>       0.25377326       0.25386888       0.12390767 </v>
    <v>       0.26202566       0.25545257       0.62570073 </v>
    <v>       0.26020837       0.77266918       0.12523174 </v>
    <v>       0.23392813       0.72513005       0.87734621 </v>
    <v>       0.76950690       0.26027004       0.12595248 </v>
    <v>       0.75917990       0.26118097       0.62484191 </v>
    <v>       0.74595341       0.75541236       0.12773372 </v>
    <v>       0.75224589       0.76550125       0.62548395 </v>
   </varray>
  </structure>
  <varray name="forces" >
   <v>      -0.00773103      -0.00660124       0.00203193 </v>
   <v>      -0.00164630       0.00202310       0.00732868 </v>
   <v>      -0.00445546       0.00131559       0.01025614 </v>
   <v>      -0.00525968      -0.00805239       0.00144084 </v>
   <v>       0.01363450      -0.00871204      -0.00076275 </v>
   <v>      -0.00360990      -0.00202898       0.00154453 </v>
   <v>      -0.00556693       0.00552690      -0.01922922 </v>
   <v>      -0.00869346      -0.01251314       0.00724265 </v>
   <v>      -0.00566895       0.00708044      -0.00668031 </v>
   <v>       0.00810640       0.00795747      -0.00187138 </v>
   <v>      -0.01017512      -0.00630787       0.00360003 </v>
   <v>      -0.01556189       0.01566136      -0.00399037 </v>
   <v>       0.00369467       0.00811394      -0.00555438 </v>
   <v>      -0.00327069      -0.02086354       0.00016435 </v>
   <v>       0.01418690      -0.00645912       0.02186254 </v>
   <v>       0.00373735      -0.00073741      -0.01353970 </v>
   <v>      -0.00513923      -0.01188481       0.00051801 </v>
   <v>      -0.00096370      -0.00463637      -0.00200722 </v>
   <v>       0.01169434      -0.00383419       0.00126034 </v>
   <v>      -0.00560322       0.00145405       0.00342869 </v>
   <v>      -0.00059081       0.00806561       0.00319191 </v>
   <v>       0.00649176       0.00047714      -0.00035794 </v>
   <v>       0.00926766      -0.00889940       0.00230442 </v>
   <v>       0.00467672       0.01000267      -0.01362436 </v>
   <v>      -0.00882923       0.00265445       0.00655853 </v>
   <v>      -0.00136908      -0.00359267       0.01739181 </v>
   <v>       0.00536028      -0.01007639      -0.00367395 </v>
   <v>      -0.00094722      -0.01162975      -0.00303252 </v>
   <v>      -0.00102589       0.01431591       0.00014846 </v>
   <v>       0.00785495      -0.00421226      -0.00851587 </v>
   <v>       0.00826178       0.00178471      -0.00186925 </v>
   <v>       0.00418093      -0.00183315      -0.00168514 </v>
   <v>      -0.00989568       0.00892188       0.05951208 </v>
   <v>      -0.01133867       0.01993264       0.00794513 </v>
   <v>       0.00428726       0.02083343      -0.03543510 </v>
   <v>       0.00400966       0.00799987      -0.01087983 </v>
   <v>       0.02764070      -0.00513459      -0.01241918 </v>
   <v>      -0.04263119       0.02101707      -0.00321024 </v>
   <v>       0.01216494       0.01096687      -0.00977560 </v>
   <v>       0.00298547      -0.00908905      -0.01263509 </v>
   <v>      -0.00741763      -0.01833589      -0.04166088 </v>
   <v>       0.00389045      -0.02439084       0.06587576 </v>
   <v>       0.00496425       0.00127088      -0.01705309 </v>
   <v>       0.01704999       0.00629388      -0.01902375 </v>
   <v>       0.00441325       0.03143959      -0.02390277 </v>
   <v>      -0.02477952      -0.02638746      -0.01817737 </v>
   <v>       0.00369798       0.01861743       0.01402742 </v>
   <v>       0.01936716      -0.02256381       0.03111183 </v>
   <v>       0.00035045       0.00732483       0.02673279 </v>
   <v>      -0.03151081      -0.01540253      -0.01087394 </v>
   <v>       0.03515652       0.04488780       0.01992513 </v>
   <v>       0.02404485       0.01001543       0.01205933 </v>
   <v>       0.02455349      -0.00185087      -0.00550973 </v>
   <v>       0.01622592       0.03317732      -0.00277358 </v>
   <v>      -0.00752864       0.00159227       0.00813497 </v>
   <v>      -0.00049410       0.00224231       0.00780564 </v>
   <v>       0.01484913       0.00867808       0.00290388 </v>
   <v>      -0.01378521      -0.00493413      -0.01223293 </v>
   <v>       0.01021686       0.00108088       0.01112660 </v>
   <v>       0.01301536      -0.02048562       0.02188914 </v>
   <v>       0.00542467       0.00966554      -0.02116642 </v>
   <v>       0.01967239      -0.03102221      -0.00797703 </v>
   <v>       0.00128706       0.01233990       0.00765086 </v>
   <v>      -0.02293391      -0.00927311       0.00389236 </v>
   <v>      -0.01818657      -0.05121757      -0.01565673 </v>
   <v>       0.00791227      -0.01125193      -0.02724319 </v>
   <v>       0.00730876      -0.01108072       0.01688762 </v>
   <v>      -0.01206006      -0.00720841      -0.01374343 </v>
   <v>      -0.00642198      -0.00567047      -0.00642897 </v>
   <v>       0.01328004       0.00479607      -0.00890491 </v>
   <v>       0.00605337      -0.00803523      -0.01479053 </v>
   <v>       0.01719678      -0.00111559      -0.01884341 </v>
   <v>      -0.04621052       0.01287320       0.00482063 </v>
   <v>      -0.00212078       0.01499658       0.01047046 </v>
   <v>      -0.00470156       0.00717728      -0.00835282 </v>
   <v>      -0.00882109       0.01122682       0.00894532 </v>
   <v>       0.01283882       0.01382042      -0.00664388 </v>
   <v>      -0.00150141       0.00693977       0.00979904 </v>
   <v>      -0.00067425       0.01633179       0.00906925 </v>
   <v>       0.01128181       0.01316185       0.00056214 </v>
   <v>       0.01471948       0.00325415      -0.00590297 </v>
   <v>       0.00276598      -0.01310971      -0.01172518 </v>
   <v>       0.01837575       0.00427008       0.01356753 </v>
   <v>       0.00310269       0.00731892       0.00554673 </v>
   <v>      -0.00950166       0.01447193       0.00689307 </v>
   <v>      -0.02693740       0.02986041       0.01293433 </v>
   <v>       0.01564578      -0.01065609      -0.00479632 </v>
   <v>       0.00697349       0.00106069      -0.00785696 </v>
   <v>      -0.00436581      -0.00881004      -0.01059801 </v>
   <v>      -0.00276829      -0.01145458      -0.00190484 </v>
   <v>      -0.00571887      -0.02083523      -0.00349258 </v>
   <v>      -0.00505263      -0.00547310      -0.00838097 </v>
   <v>       0.03513815      -0.01426961      -0.00352438 </v>
   <v>      -0.02756591       0.01449476      -0.01424422 </v>
   <v>       0.00380878      -0.01304601      -0.02357349 </v>
   <v>       0.00352701      -0.00473074      -0.01194450 </v>
   <v>      -0.00048129       0.00944266      -0.00970396 </v>
   <v>       0.01318491       0.01425283       0.00999163 </v>
   <v>      -0.02130517      -0.02524334       0.00307601 </v>
   <v>      -0.01137492      -0.01921663      -0.00707190 </v>
   <v>       0.00504854      -0.02383144      -0.00613242 </v>
   <v>       0.00224995      -0.00282929      -0.00771901 </v>
   <v>       0.00409487       0.01535419       0.00683851 </v>
   <v>      -0.00171363       0.00692082       0.01553082 </v>
   <v>      -0.00767241       0.00633095       0.00228913 </v>
   <v>      -0.04067093      -0.00628707       0.01082080 </v>
   <v>      -0.01963681       0.02363392       0.01351995 </v>
   <v>      -0.01051971       0.00747451      -0.00386414 </v>
   <v>      -0.01190419       0.00700748      -0.01883783 </v>
   <v>       0.01913563       0.00467919      -0.00476388 </v>
   <v>       0.01093554       0.02234086       0.00074116 </v>
   <v>       0.00763079      -0.00321430       0.00612558 </v>
   <v>       0.00725332      -0.00049602      -0.01226401 </v>
   <v>       0.01299296       0.00929798      -0.00582452 </v>
   <v>       0.00812735       0.01276958       0.01375211 </v>
   <v>      -0.00056714       0.00464548      -0.00070295 </v>
   <v>       0.01508771      -0.01453961       0.00247018 </v>
   <v>       0.02012660      -0.00136864       0.00213881 </v>
   <v>      -0.03964296       0.03210540      -0.00256059 </v>
   <v>      -0.01685149      -0.00734454      -0.00229333 </v>
   <v>      -0.00069458      -0.01121591      -0.00947983 </v>
   <v>       0.01163725      -0.02489049       0.01297275 </v>
   <v>       0.01620973      -0.00490529      -0.01130097 </v>
   <v>       0.00291835      -0.00485473       0.01065608 </v>
   <v>       0.00601239       0.00483130      -0.01621749 </v>
   <v>      -0.01615975       0.00307728       0.03972618 </v>
   <v>      -0.01588297      -0.00988288       0.01091472 </v>
   <v>       0.00367150       0.00691507      -0.00367256 </v>
   <v>      -0.01744722      -0.01255866      -0.01554523 </v>
   <v>      -0.01262345      -0.01596611       0.00092024 </v>
   <v>      -0.01834089      -0.01998531       0.00841247 </v>
   <v>       0.00359499       0.01323239       0.00035989 </v>
   <v>       0.01032613       0.00363540      -0.00539172 </v>
   <v>       0.01567948      -0.01337987      -0.03576220 </v>
   <v>      -0.00035764      -0.01560820      -0.00371865 </v>
   <v>      -0.00891248       0.00166472       0.01148771 </v>
   <v>      -0.00638376      -0.00600042      -0.03287233 </v>
   <v>       0.00445378       0.00328687      -0.01462457 </v>
   <v>      -0.01518167      -0.01214439       0.02719071 </v>
   <v>      -0.00667501      -0.01444332       0.02744224 </v>
   <v>       0.00876704       0.00915684      -0.01454604 </v>
   <v>      -0.01603437       0.01333879      -0.00616259 </v>
   <v>      -0.01596044      -0.00581692       0.04371222 </v>
   <v>      -0.01170203      -0.01158201       0.00988936 </v>
   <v>       0.00157480      -0.00813206      -0.00113691 </v>
   <v>      -0.01032729      -0.01006026       0.00732375 </v>
   <v>       0.01620237       0.00936690       0.00763442 </v>
   <v>       0.00060697       0.00465907      -0.00419250 </v>
   <v>       0.01666506      -0.00078159       0.02035836 </v>
   <v>      -0.00116581      -0.00049458      -0.01394755 </v>
   <v>      -0.00055171       0.00716282       0.01017129 </v>
   <v>       0.01479088       0.02065843       0.00910062 </v>
   <v>      -0.00597183       0.00164203       0.01438520 </v>
   <v>       0.00442165       0.00711406      -0.00035293 </v>
  </varray>
  <varray name="stress" >
   <v>       0.02970006       0.08008932      -0.22489074 </v>
   <v>       0.08008951       0.04598869       0.00563592 </v>
   <v>      -0.22489082       0.00563622       0.02616125 </v>
  </varray>
  <energy>
   <i name="e_fr_energy">  -1089.09229814 </i>
   <i name="e_wo_entrp">  -1089.09229814 </i>
   <i name="e_0_energy">     -0.00000000 </i>
  </energy>
  <time name="totalsc"> 1028.70 1031.45</time>
 </calculation>
 <calculation>
  <scstep>
   <time name="dav">  284.96  285.03</time>
   <time name="total">  288.68  288.83</time>
   <energy>
    <i name="alphaZ">   5612.63326238 </i>
    <i name="ewald"> -61528.25678638 </i>
    <i name="hartreedc"> -17016.67843643 </i>
    <i name="XCdc">   3074.78293780 </i>
    <i name="pawpsdc"> 113954.97487518 </i>
    <i name="pawaedc">-113007.45986672 </i>
    <i name="eentropy">     -0.00000000 </i>
    <i name="bandstr">  -7095.89999424 </i>
    <i name="atom">  74916.81196153 </i>
    <i name="e_fr_energy">  -1089.09204688 </i>
    <i name="e_wo_entrp">  -1089.09204688 </i>
    <i name="e_0_energy">  -1089.09204688 </i>
   </energy>
  </scstep>
  <scstep>
   <time name="diag">   33.40   33.40</time>
   <time name="diis">   52.00   52.01</time>
   <time name="orth">   18.93   18.93</time>
   <time name="total">  108.05  108.09</time>
   <energy>
    <i name="e_fr_energy">  -1089.09443558 </i>
    <i name="e_wo_entrp">  -1089.09443558 </i>
    <i name="e_0_energy">  -1089.09443558 </i>
   </energy>
  </scstep>
  <scstep>
   <time name="diag">   33.37   33.38</time>
   <time name="diis">   52.92   52.93</time>
   <time name="orth">   18.92   18.92</time>
   <time name="total">  108.95  109.07</time>
   <energy>
    <i name="e_fr_energy">  -1089.09452625 </i>
    <i name="e_wo_entrp">  -1089.09452625 </i>
    <i name="e_0_energy">  -1089.09452625 </i>
   </energy>
  </scstep>
  <scstep>
   <time name="diag">   33.36   33.39</time>
   <time name="diis">   41.59   41.61</time>
   <time name="orth">   18.93   18.92</time>
   <time name="total">   97.60   97.74</time>
   <energy>
    <i name="e_fr_energy">  -1089.09435748 </i>
    <i name="e_wo_entrp">  -1089.09435748 </i>
    <i name="e_0_energy">  -1089.09435748 </i>
   </energy>
  </scstep>
  <scstep>
   <time name="diag">   33.35   33.36</time>
   <time name="diis">   36.00   36.01</time>
   <time name="orth">   18.96   18.96</time>
   <time name="total">   92.04   92.16</time>
   <energy>
    <i name="e_fr_energy">  -1089.09429754 </i>
    <i name="e_wo_entrp">  -1089.09429754 </i>
    <i name="e_0_energy">  -1089.09429754 </i>
   </energy>
  </scstep>
  <scstep>
   <time name="diag">   33.38   33.38</time>
   <time name="diis">   32.21   32.23</time>
   <time name="orth">   18.94   18.94</time>
   <time name="total">   88.24   88.30</time>
   <energy>
    <i name="e_fr_energy">  -1089.09429943 </i>
    <i name="e_wo_entrp">  -1089.09429943 </i>
    <i name="e_0_energy">  -1089.09429943 </i>
   </energy>
  </scstep>
  <scstep>
   <time name="diag">   33.41   33.42</time>
   <time name="diis">   31.63   31.65</time>
   <time name="orth">   18.95   18.95</time>
   <time name="total">   87.73   87.84</time>
   <energy>
    <i name="e_fr_energy">  -1089.09429924 </i>
    <i name="e_wo_entrp">  -1089.09429924 </i>
    <i name="e_0_energy">  -1089.09429924 </i>
   </energy>
  </scstep>
  <scstep>
   <time name="diag">   33.42   33.42</time>
   <time name="diis">   30.49   30.49</time>
   <time name="orth">   18.93   18.93</time>
   <time name="total">   83.42   83.51</time>
   <energy>
    <i name="alphaZ">   5612.63326238 </i>
    <i name="ewald"> -61528.25678638 </i>
    <i name="hartreedc"> -17017.30099744 </i>
    <i name="XCdc">   3074.82304137 </i>
    <i name="pawpsdc"> 113945.98712248 </i>
    <i name="pawaedc">-112998.47308563 </i>
    <i name="eentropy">     -0.00000000 </i>
    <i name="bandstr">  -7095.31881736 </i>
    <i name="atom">  74916.81196153 </i>
    <i name="e_fr_energy">  -1089.09429904 </i>
    <i name="e_wo_entrp">  -1089.09429904 </i>
    <i name="e_0_energy">  -1089.09429904 </i>
   </energy>
  </scstep>
  <structure>
   <crystal>
    <varray name="basis" >
     <v>      11.21547874       0.09775147       0.00599193 </v>
     <v>       0.09778180      11.22416138      -0.00329755 </v>
     <v>       0.00899337      -0.00500278      15.95780541 </v>
    </varray>
    <i name="volume">   2008.68453090 </i>
    <varray name="rec_basis" >
     <v>       0.08916929      -0.00077683      -0.00005050 </v>
     <v>      -0.00077659       0.08910029       0.00002837 </v>
     <v>      -0.00003364       0.00001870       0.06266528 </v>
    </varray>
   </crystal>
   <varray name="positions" >
    <v>       0.00391834       0.24468205       0.12345304 </v>
    <v>       0.99598191       0.23756224       0.62265959 </v>
    <v>       0.00283014       0.75410479       0.12320776 </v>
    <v>       0.98272692       0.76843232       0.62406029 </v>
    <v>       0.49435349       0.23878146       0.12143852 </v>
    <v>       0.49964240       0.24622234       0.62162908 </v>
    <v>       0.49899355       0.76336295       0.11773935 </v>
    <v>       0.50951636       0.75673478       0.62320862 </v>
    <v>       0.99873983       0.23731808       0.37140952 </v>
    <v>       0.99845947       0.23675629       0.88204318 </v>
    <v>       0.00552126       0.75800907       0.37513737 </v>
    <v>       0.99636080       0.75695380       0.88531235 </v>
    <v>       0.49328951       0.23952634       0.37641458 </v>
    <v>       0.49795564       0.24749624       0.87762351 </v>
    <v>       0.50894905       0.76519049       0.37619539 </v>
    <v>       0.51083877       0.75674758       0.87954285 </v>
    <v>       0.24887055       0.00372659       0.12430651 </v>
    <v>       0.25129075       0.00719997       0.62220104 </v>
    <v>       0.24545466       0.49496056       0.12424128 </v>
    <v>       0.26637073       0.48224584       0.62341587 </v>
    <v>       0.75179562       0.99996998       0.12414201 </v>
    <v>       0.74561379       0.00192432       0.62420286 </v>
    <v>       0.76073538       0.49736997       0.11800817 </v>
    <v>       0.74099201       0.50013158       0.62438211 </v>
    <v>       0.25356593       0.00952433       0.37128281 </v>
    <v>       0.25304952       0.00830822       0.88238871 </v>
    <v>       0.24446363       0.48610954       0.37023151 </v>
    <v>       0.25101311       0.49444541       0.87960208 </v>
    <v>       0.74891232       0.00156297       0.37655724 </v>
    <v>       0.74921307       0.00036305       0.88074885 </v>
    <v>       0.74564639       0.49399504       0.37123369 </v>
    <v>       0.74058544       0.49701995       0.87989369 </v>
    <v>       0.50190025       0.00299645       0.75114644 </v>
    <v>       0.49711605       0.50215441       0.74780123 </v>
    <v>       0.00427458       0.00000343       0.25087198 </v>
    <v>       0.24810650       0.25163961       0.74990690 </v>
    <v>       0.25028229       0.24948768       0.00246994 </v>
    <v>       0.99925592       0.49967963       0.24759368 </v>
    <v>       0.74996087       0.25207900       0.24873138 </v>
    <v>       0.74942794       0.74950880       0.00478111 </v>
    <v>       0.75167900       0.74994902       0.49841086 </v>
    <v>       0.99955768       0.99702015       0.74984260 </v>
    <v>       0.24814372       0.24925833       0.49984936 </v>
    <v>       0.74647466       0.24825994       0.75123522 </v>
    <v>       0.74518787       0.24743271       0.49834294 </v>
    <v>       0.00103673       0.49992080       0.00085780 </v>
    <v>       0.25185399       0.75000389       0.00224744 </v>
    <v>       0.75281658       0.74959967       0.75022227 </v>
    <v>       0.74793807       0.24852266       0.00108467 </v>
    <v>       0.25584996       0.74845535       0.24557092 </v>
    <v>       0.49966522       0.99985363       0.24999168 </v>
    <v>       0.49760089       0.50287345       0.50095975 </v>
    <v>       0.26555566       0.76045483       0.76536394 </v>
    <v>       0.24588115       0.24809337       0.24922647 </v>
    <v>       0.99743737       0.99948143       0.49902406 </v>
    <v>       0.50236114       0.00235055       0.49987574 </v>
    <v>       0.26651821       0.75862149       0.48305694 </v>
    <v>       0.49799106       0.50288418       0.98948237 </v>
    <v>       0.00116347       0.99821327       0.00164665 </v>
    <v>       0.76486396       0.75931880       0.25164628 </v>
    <v>       0.50075972       0.00055648       0.99868904 </v>
    <v>       0.48756135       0.48926355       0.26326726 </v>
    <v>       0.98737208       0.48509593       0.76538635 </v>
    <v>       0.98459712       0.48973915       0.48475635 </v>
    <v>       0.11643665       0.12977647       0.24436726 </v>
    <v>       0.11570270       0.13361067       0.74078386 </v>
    <v>       0.12558432       0.62786408       0.23235399 </v>
    <v>       0.63961122       0.88433833       0.75518013 </v>
    <v>       0.61798158       0.13615446       0.23681906 </v>
    <v>       0.61456145       0.13713698       0.73802027 </v>
    <v>       0.86629153       0.11935468       0.25794315 </v>
    <v>       0.61723393       0.63350307       0.73929603 </v>
    <v>       0.63355384       0.41146600       0.23609984 </v>
    <v>       0.38074548       0.37023013       0.75699941 </v>
    <v>       0.38046132       0.86811734       0.26437315 </v>
    <v>       0.39018109       0.86716605       0.75968365 </v>
    <v>       0.88099764       0.36833044       0.26631636 </v>
    <v>       0.88300007       0.35823903       0.76054506 </v>
    <v>       0.62826974       0.61731267       0.01114893 </v>
    <v>       0.88689880       0.86162980       0.75884233 </v>
    <v>       0.36696923       0.11636893       0.25335158 </v>
    <v>       0.36338532       0.11825984       0.75187231 </v>
    <v>       0.39856355       0.62138045       0.22334402 </v>
    <v>       0.34922050       0.62008431       0.73172286 </v>
    <v>       0.13010699       0.61788448       0.01663694 </v>
    <v>       0.86315112       0.11113993       0.75314141 </v>
    <v>       0.86074261       0.61237529       0.24442670 </v>
    <v>       0.88893951       0.61309275       0.72815569 </v>
    <v>       0.12800974       0.38162244       0.25081736 </v>
    <v>       0.13084722       0.40372892       0.73606939 </v>
    <v>       0.13538253       0.87722515       0.25361755 </v>
    <v>       0.13568206       0.85816964       0.72994094 </v>
    <v>       0.62687346       0.86991274       0.25440990 </v>
    <v>       0.74267143       0.72325994       0.37564837 </v>
    <v>       0.98520439       0.99722729       0.62449026 </v>
    <v>       0.37027106       0.38211295       0.99976054 </v>
    <v>       0.36823691       0.38442045       0.48975254 </v>
    <v>       0.37083688       0.87493162       0.98532361 </v>
    <v>       0.37117483       0.88440406       0.49107407 </v>
    <v>       0.86862322       0.38294584       0.98535838 </v>
    <v>       0.86497924       0.37756896       0.48885272 </v>
    <v>       0.86761326       0.87745526       0.99464151 </v>
    <v>       0.87212643       0.87327348       0.48895476 </v>
    <v>       0.13172026       0.12012541       0.00416719 </v>
    <v>       0.12752681       0.12460110       0.51116298 </v>
    <v>       0.88635145       0.87018054       0.26200322 </v>
    <v>       0.38045086       0.36645916       0.25587928 </v>
    <v>       0.63246148       0.12144480       0.01328860 </v>
    <v>       0.62852975       0.12340850       0.51088621 </v>
    <v>       0.49629038       0.52067275       0.87024354 </v>
    <v>       0.11779756       0.36903599       0.99733170 </v>
    <v>       0.11914078       0.39800035       0.51767026 </v>
    <v>       0.11990054       0.86636840       0.00094333 </v>
    <v>       0.12290248       0.83339166       0.51303899 </v>
    <v>       0.61606180       0.37259024       0.00690360 </v>
    <v>       0.61519194       0.37327617       0.49740473 </v>
    <v>       0.62170408       0.86862087       0.99421716 </v>
    <v>       0.62454167       0.86909526       0.49628981 </v>
    <v>       0.37908969       0.13130285       0.99556042 </v>
    <v>       0.37774934       0.13501743       0.49850151 </v>
    <v>       0.88033047       0.13082172       0.99605953 </v>
    <v>       0.87468831       0.12966697       0.49222664 </v>
    <v>       0.88193617       0.63050913       0.00658016 </v>
    <v>       0.89573143       0.62536335       0.51867567 </v>
    <v>       0.99158020       0.99338336       0.12844767 </v>
    <v>       0.98960910       0.47943855       0.12462831 </v>
    <v>       0.49755849       0.48280261       0.62544977 </v>
    <v>       0.48809341       0.99040342       0.12596039 </v>
    <v>       0.49297227       0.99030410       0.62703035 </v>
    <v>       0.38070220       0.62644729       0.01422729 </v>
    <v>       0.62701137       0.62142812       0.51331560 </v>
    <v>       0.01982188       0.00103519       0.37748624 </v>
    <v>       0.01774205       0.99805639       0.87009270 </v>
    <v>       0.01743873       0.52635727       0.37296201 </v>
    <v>       0.63273057       0.38729478       0.75394328 </v>
    <v>       0.51385815       0.01266904       0.37384497 </v>
    <v>       0.51249113       0.01528999       0.87282955 </v>
    <v>       0.50408462       0.53057234       0.37777656 </v>
    <v>       0.23189488       0.25003913       0.37911047 </v>
    <v>       0.23734182       0.25278042       0.87196671 </v>
    <v>       0.24859482       0.71543486       0.36926940 </v>
    <v>       0.36203755       0.63026071       0.52321219 </v>
    <v>       0.72504192       0.24923533       0.37206290 </v>
    <v>       0.73278267       0.24127616       0.87534765 </v>
    <v>       0.01655992       0.52526961       0.87655917 </v>
    <v>       0.75097764       0.72698826       0.87272453 </v>
    <v>       0.25384259       0.25390854       0.12393072 </v>
    <v>       0.26202811       0.25547257       0.62568806 </v>
    <v>       0.26028003       0.77266522       0.12529325 </v>
    <v>       0.23392317       0.72512795       0.87730405 </v>
    <v>       0.76950423       0.26030086       0.12598324 </v>
    <v>       0.75924273       0.26126923       0.62486941 </v>
    <v>       0.74592762       0.75541967       0.12777722 </v>
    <v>       0.75226464       0.76553166       0.62548288 </v>
   </varray>
  </structure>
  <varray name="forces" >
   <v>       0.00951978      -0.00052749       0.00201995 </v>
   <v>       0.00179991      -0.01049373       0.00434144 </v>
   <v>      -0.00471874      -0.00260877       0.00820506 </v>
   <v>       0.00012617       0.00989099      -0.00744183 </v>
   <v>       0.00217737      -0.00893487      -0.00079125 </v>
   <v>       0.00001686      -0.00807624       0.00178259 </v>
   <v>      -0.00302380       0.00849621       0.00011440 </v>
   <v>      -0.00262438       0.00330383       0.00349141 </v>
   <v>       0.00664134      -0.00246186       0.00186451 </v>
   <v>       0.00290325       0.00661660      -0.00242763 </v>
   <v>       0.00333098       0.00635025       0.00641254 </v>
   <v>      -0.00083863       0.00364873       0.00231474 </v>
   <v>      -0.00055290       0.00716641       0.00622729 </v>
   <v>       0.00683047      -0.00464580      -0.00750533 </v>
   <v>      -0.00540357      -0.00071132      -0.00033846 </v>
   <v>       0.00357553      -0.00311955      -0.01241337 </v>
   <v>       0.00617258      -0.00933259       0.01245634 </v>
   <v>      -0.00610810      -0.00414213      -0.00524079 </v>
   <v>       0.00588706      -0.00085514       0.00432692 </v>
   <v>      -0.00241041       0.00102811      -0.00679282 </v>
   <v>      -0.00424393      -0.00844497       0.00658022 </v>
   <v>       0.00480270      -0.00260699      -0.00446524 </v>
   <v>       0.00275039       0.00461491       0.00072356 </v>
   <v>       0.00176537       0.00629542      -0.00167629 </v>
   <v>      -0.00828523      -0.00555498       0.00434668 </v>
   <v>      -0.00597630      -0.00311382       0.01022071 </v>
   <v>       0.00337424       0.00485046      -0.00357309 </v>
   <v>      -0.00503920      -0.00501207       0.00146465 </v>
   <v>       0.00588792       0.00983933       0.00752312 </v>
   <v>       0.00914529       0.00820583      -0.00908258 </v>
   <v>      -0.00184900       0.00078501      -0.00110020 </v>
   <v>      -0.00210139      -0.01223100      -0.00586249 </v>
   <v>       0.01125139       0.01142310      -0.03278101 </v>
   <v>       0.01933581      -0.01547138      -0.01379481 </v>
   <v>       0.00048142      -0.02664467       0.02898068 </v>
   <v>      -0.00262423      -0.00125490       0.00077512 </v>
   <v>      -0.02023121       0.01415401       0.00729672 </v>
   <v>       0.00998647       0.00843808       0.00202959 </v>
   <v>       0.00468811      -0.00379892       0.01397612 </v>
   <v>      -0.00279900      -0.00856121       0.02204699 </v>
   <v>       0.01283837       0.02861833      -0.00211301 </v>
   <v>       0.00169071       0.00068679      -0.05431478 </v>
   <v>      -0.00380454      -0.00369659       0.00385478 </v>
   <v>      -0.01092491       0.00557296      -0.00268430 </v>
   <v>       0.00370421      -0.02979010       0.01437227 </v>
   <v>       0.02407229       0.00019288       0.01129115 </v>
   <v>      -0.01424954      -0.01853292       0.00498282 </v>
   <v>      -0.00072478      -0.00099473      -0.02581647 </v>
   <v>      -0.00597971      -0.00610602      -0.03048498 </v>
   <v>       0.00835760      -0.00160184       0.03126677 </v>
   <v>      -0.02857011      -0.05844172      -0.00304165 </v>
   <v>      -0.02505757       0.00444597      -0.00861525 </v>
   <v>      -0.00357621       0.00965253      -0.00020168 </v>
   <v>      -0.00036064       0.01377035      -0.00447099 </v>
   <v>       0.00358884       0.00028523       0.00967755 </v>
   <v>      -0.00540025      -0.00072264       0.01955130 </v>
   <v>      -0.01642259      -0.00568301      -0.01437346 </v>
   <v>      -0.00262975       0.00489453      -0.00190242 </v>
   <v>       0.00558659       0.00622766       0.01609636 </v>
   <v>      -0.01004625       0.00429714      -0.00390903 </v>
   <v>       0.00757597       0.00256098       0.00897978 </v>
   <v>      -0.01781385       0.03253810       0.00368841 </v>
   <v>       0.00202506      -0.00851866      -0.00541806 </v>
   <v>       0.01795636      -0.00772662      -0.01922212 </v>
   <v>       0.01622690      -0.00582415      -0.01679714 </v>
   <v>       0.00824154      -0.00546358      -0.00766288 </v>
   <v>      -0.00157454      -0.01433904       0.00508233 </v>
   <v>       0.00084770      -0.01710411       0.00066991 </v>
   <v>       0.01744237       0.01692999      -0.00194134 </v>
   <v>      -0.00683479      -0.01069962      -0.00225592 </v>
   <v>      -0.01665918       0.01809317      -0.01857141 </v>
   <v>       0.01598361      -0.00408361      -0.00881693 </v>
   <v>       0.01146691      -0.01840816      -0.00680442 </v>
   <v>      -0.00813288       0.00782471       0.01644984 </v>
   <v>       0.00516820       0.01467208      -0.00658023 </v>
   <v>      -0.00408001       0.01087159       0.01459083 </v>
   <v>      -0.02536385      -0.01150145      -0.00151460 </v>
   <v>       0.01206135       0.02268620       0.01539951 </v>
[...]
       <r>   -16.6160     0.0000    32.0000 </r>
       <r>   -16.4630     0.0000    32.0000 </r>
       <r>   -16.3100     0.0000    32.0000 </r>
       <r>   -16.1570     0.0000    32.0000 </r>
       <r>   -16.0041     0.0000    32.0000 </r>
       <r>   -15.8511     0.0000    32.0000 </r>
       <r>   -15.6981     0.0000    32.0000 </r>
       <r>   -15.5451     0.0000    32.0000 </r>
       <r>   -15.3921     0.0000    32.0000 </r>
       <r>   -15.2392     0.0001    32.0000 </r>
       <r>   -15.0862     5.2156    32.7979 </r>
       <r>   -14.9332    37.7291    38.5696 </r>
       <r>   -14.7802    54.0602    46.8396 </r>
       <r>   -14.6273    41.7095    53.2202 </r>
       <r>   -14.4743    30.8791    57.9440 </r>
       <r>   -14.3213    33.7649    63.1093 </r>
       <r>   -14.1683    73.3549    74.3309 </r>
       <r>   -14.0153   105.5344    90.4753 </r>
       <r>   -13.8624   110.0297   107.3074 </r>
       <r>   -13.7094    65.4866   117.3254 </r>
       <r>   -13.5564    29.9674   121.9097 </r>
       <r>   -13.4034     0.5900   122.0000 </r>
       <r>   -13.2505     0.0000   122.0000 </r>
       <r>   -13.0975     0.0000   122.0000 </r>
       <r>   -12.9445     0.0000   122.0000 </r>
       <r>   -12.7915     0.3916   122.0599 </r>
       <r>   -12.6385    36.3416   127.6194 </r>
       <r>   -12.4856   109.5803   144.3827 </r>
       <r>   -12.3326   161.8399   169.1406 </r>
       <r>   -12.1796   118.3022   187.2381 </r>
       <r>   -12.0266   105.2045   203.3321 </r>
       <r>   -11.8737    61.0570   212.6724 </r>
       <r>   -11.7207    30.5907   217.3521 </r>
       <r>   -11.5677     4.2350   218.0000 </r>
       <r>   -11.4147     0.0001   218.0000 </r>
       <r>   -11.2617     0.0000   218.0000 </r>
       <r>   -11.1088     0.0000   218.0000 </r>
       <r>   -10.9558     0.0000   218.0000 </r>
       <r>   -10.8028     0.0000   218.0000 </r>
       <r>   -10.6498     0.0000   218.0000 </r>
       <r>   -10.4969     0.0000   218.0000 </r>
       <r>   -10.3439     0.0000   218.0000 </r>
       <r>   -10.1909     0.0000   218.0000 </r>
       <r>   -10.0379     0.0000   218.0000 </r>
       <r>    -9.8849     0.0000   218.0000 </r>
       <r>    -9.7320     0.0000   218.0000 </r>
       <r>    -9.5790     0.0000   218.0000 </r>
       <r>    -9.4260     0.0000   218.0000 </r>
       <r>    -9.2730     0.0000   218.0000 </r>
       <r>    -9.1201     0.0000   218.0000 </r>
       <r>    -8.9671     0.0000   218.0000 </r>
       <r>    -8.8141     0.0000   218.0000 </r>
       <r>    -8.6611     0.0000   218.0000 </r>
       <r>    -8.5082     0.0000   218.0000 </r>
       <r>    -8.3552     0.0000   218.0000 </r>
       <r>    -8.2022     0.0000   218.0000 </r>
       <r>    -8.0492     0.0000   218.0000 </r>
       <r>    -7.8962     0.0000   218.0000 </r>
       <r>    -7.7433     0.0000   218.0000 </r>
       <r>    -7.5903     0.0000   218.0000 </r>
       <r>    -7.4373     0.0000   218.0000 </r>
       <r>    -7.2843     0.0000   218.0000 </r>
       <r>    -7.1314     0.0000   218.0000 </r>
       <r>    -6.9784     0.0000   218.0000 </r>
       <r>    -6.8254     0.0000   218.0000 </r>
       <r>    -6.6724     0.0000   218.0000 </r>
       <r>    -6.5194     0.0000   218.0000 </r>
       <r>    -6.3665     0.0000   218.0000 </r>
       <r>    -6.2135     0.0000   218.0000 </r>
       <r>    -6.0605     0.0000   218.0000 </r>
       <r>    -5.9075     0.0000   218.0000 </r>
       <r>    -5.7546     0.0000   218.0000 </r>
       <r>    -5.6016     0.0000   218.0000 </r>
       <r>    -5.4486     0.0000   218.0000 </r>
       <r>    -5.2956     0.0000   218.0000 </r>
       <r>    -5.1426     0.0000   218.0000 </r>
       <r>    -4.9897     0.0000   218.0000 </r>
       <r>    -4.8367     0.0000   218.0000 </r>
       <r>    -4.6837     0.0000   218.0000 </r>
       <r>    -4.5307     0.0000   218.0000 </r>
       <r>    -4.3778     0.0000   218.0000 </r>
       <r>    -4.2248     0.0000   218.0000 </r>
       <r>    -4.0718     0.0000   218.0000 </r>
       <r>    -3.9188     0.0000   218.0000 </r>
       <r>    -3.7658     0.0000   218.0000 </r>
       <r>    -3.6129     0.0000   218.0000 </r>
       <r>    -3.4599     0.0000   218.0000 </r>
       <r>    -3.3069     0.0000   218.0000 </r>
       <r>    -3.1539     0.0000   218.0000 </r>
       <r>    -3.0010     0.0000   218.0000 </r>
       <r>    -2.8480     0.0000   218.0000 </r>
       <r>    -2.6950     0.0000   218.0000 </r>
       <r>    -2.5420     0.0001   218.0000 </r>
       <r>    -2.3890     3.1262   218.4783 </r>
       <r>    -2.2361    14.5801   220.7087 </r>
       <r>    -2.0831    23.4173   224.2910 </r>
       <r>    -1.9301    27.1203   228.4398 </r>
       <r>    -1.7771    37.6812   234.2042 </r>
       <r>    -1.6242    40.2943   240.3683 </r>
       <r>    -1.4712    48.0612   247.7206 </r>
       <r>    -1.3182    53.9377   255.9718 </r>
       <r>    -1.1652    67.3929   266.2815 </r>
       <r>    -1.0122    84.3189   279.1804 </r>
       <r>    -0.8593    72.7336   290.3070 </r>
       <r>    -0.7063    84.6084   303.2502 </r>
       <r>    -0.5533    93.9826   317.6274 </r>
       <r>    -0.4003   102.1885   333.2599 </r>
       <r>    -0.2474    74.6252   344.6759 </r>
       <r>    -0.0944    55.9144   353.2296 </r>
       <r>     0.0586    47.0018   360.4198 </r>
       <r>     0.2116    56.2814   369.0296 </r>
       <r>     0.3645    57.4580   377.8194 </r>
       <r>     0.5175    55.1617   386.2579 </r>
       <r>     0.6705    53.1822   394.3936 </r>
       <r>     0.8235    46.5607   401.5163 </r>
       <r>     0.9765    52.6346   409.5682 </r>
       <r>     1.1294    61.3071   418.9468 </r>
       <r>     1.2824    75.1060   430.4364 </r>
       <r>     1.4354    86.7977   443.7145 </r>
       <r>     1.5884    88.2847   457.2200 </r>
       <r>     1.7413    74.1031   468.5562 </r>
       <r>     1.8943    53.6992   476.7709 </r>
       <r>     2.0473    40.5342   482.9718 </r>
       <r>     2.2003    22.5673   486.4241 </r>
       <r>     2.3533     9.8986   487.9383 </r>
       <r>     2.5062     0.4032   488.0000 </r>
       <r>     2.6592     0.0000   488.0000 </r>
       <r>     2.8122     0.0000   488.0000 </r>
       <r>     2.9652     0.0000   488.0000 </r>
       <r>     3.1181     0.0000   488.0000 </r>
       <r>     3.2711     0.0000   488.0000 </r>
       <r>     3.4241     0.0000   488.0000 </r>
       <r>     3.5771     0.0000   488.0000 </r>
       <r>     3.7301     0.0000   488.0000 </r>
       <r>     3.8830     0.0000   488.0000 </r>
       <r>     4.0360     0.0000   488.0000 </r>
       <r>     4.1890     0.0000   488.0000 </r>
       <r>     4.3420     0.3072   488.0470 </r>
       <r>     4.4949    13.4106   490.0985 </r>
       <r>     4.6479    44.8444   496.9587 </r>
       <r>     4.8009    45.9321   503.9853 </r>
       <r>     4.9539    52.2273   511.9749 </r>
       <r>     5.1069    51.9907   519.9283 </r>
       <r>     5.2598    64.7757   529.8375 </r>
       <r>     5.4128    72.5394   540.9344 </r>
       <r>     5.5658    63.3954   550.6325 </r>
       <r>     5.7188    72.3276   561.6970 </r>
       <r>     5.8717    71.5133   572.6370 </r>
       <r>     6.0247    91.3885   586.6173 </r>
       <r>     6.1777    83.5196   599.3940 </r>
       <r>     6.3307    51.7442   607.3097 </r>
       <r>     6.4837    22.6537   610.7752 </r>
       <r>     6.6366    14.5503   613.0011 </r>
       <r>     6.7896    17.9784   615.7514 </r>
       <r>     6.9426    15.4139   618.1093 </r>
       <r>     7.0956    18.0395   620.8690 </r>
       <r>     7.2485    16.1743   623.3433 </r>
       <r>     7.4015    12.1590   625.2033 </r>
       <r>     7.5545    15.2288   627.5330 </r>
       <r>     7.7075    17.8323   630.2609 </r>
       <r>     7.8604    21.3830   633.5321 </r>
       <r>     8.0134    25.9661   637.5043 </r>
       <r>     8.1664    29.4501   642.0095 </r>
       <r>     8.3194    21.2448   645.2595 </r>
       <r>     8.4724    22.3732   648.6821 </r>
       <r>     8.6253    26.5529   652.7441 </r>
       <r>     8.7783    32.8000   657.7618 </r>
       <r>     8.9313    30.6242   662.4466 </r>
       <r>     9.0843    31.7040   667.2966 </r>
       <r>     9.2372    35.1723   672.6771 </r>
       <r>     9.3902    35.0416   678.0377 </r>
       <r>     9.5432    44.5361   684.8507 </r>
       <r>     9.6962    47.9721   692.1894 </r>
       <r>     9.8492    57.8055   701.0323 </r>
       <r>    10.0021    62.3701   710.5735 </r>
       <r>    10.1551    61.4177   719.9691 </r>
       <r>    10.3081    62.0450   729.4606 </r>
       <r>    10.4611    56.4286   738.0929 </r>
       <r>    10.6140    58.0691   746.9761 </r>
       <r>    10.7670    62.2028   756.4918 </r>
       <r>    10.9200    55.1691   764.9314 </r>
       <r>    11.0730    20.0432   767.9976 </r>
       <r>    11.2260     0.0157   768.0000 </r>
       <r>    11.3789     0.0000   768.0000 </r>
       <r>    11.5319     0.0000   768.0000 </r>
       <r>    11.6849     0.0000   768.0000 </r>
       <r>    11.8379     0.0000   768.0000 </r>
       <r>    11.9908     0.0000   768.0000 </r>
       <r>    12.1438     0.0000   768.0000 </r>
       <r>    12.2968     0.0000   768.0000 </r>
       <r>    12.4498     0.0000   768.0000 </r>
       <r>    12.6028     0.0000   768.0000 </r>
       <r>    12.7557     0.0000   768.0000 </r>
       <r>    12.9087     0.0000   768.0000 </r>
       <r>    13.0617     0.0000   768.0000 </r>
      </set>
     </set>
    </array>
   </total>
  </dos>
 </calculation>
 <structure name="finalpos" >
  <crystal>
   <varray name="basis" >
    <v>      11.21570291       0.09807614       0.00509648 </v>
    <v>       0.09810748      11.22432378      -0.00318904 </v>
    <v>       0.00771804      -0.00483730      15.95743927 </v>
   </varray>
   <i name="volume">   2008.70681896 </i>
   <varray name="rec_basis" >
    <v>       0.08916754      -0.00077939      -0.00004336 </v>
    <v>      -0.00077914       0.08909904       0.00002739 </v>
    <v>      -0.00002863       0.00001806       0.06266672 </v>
   </varray>
  </crystal>
  <varray name="positions" >
   <v>       0.00395654       0.24463837       0.12347828 </v>
   <v>       0.99600120       0.23749301       0.62271233 </v>
   <v>       0.00274804       0.75409493       0.12326138 </v>
   <v>       0.98269593       0.76844825       0.62402770 </v>
   <v>       0.49445954       0.23864301       0.12144079 </v>
   <v>       0.49962307       0.24616125       0.62164631 </v>
   <v>       0.49894520       0.76347109       0.11765896 </v>
   <v>       0.50947173       0.75670839       0.62326782 </v>
   <v>       0.99877696       0.23733115       0.37138696 </v>
   <v>       0.99851145       0.23682132       0.88203328 </v>
   <v>       0.00550027       0.75803216       0.37518588 </v>
   <v>       0.99628922       0.75704960       0.88533577 </v>
   <v>       0.49332019       0.23961452       0.37642034 </v>
   <v>       0.49800460       0.24736384       0.87758931 </v>
   <v>       0.50897021       0.76516685       0.37624752 </v>
   <v>       0.51090501       0.75672496       0.87942643 </v>
   <v>       0.24892927       0.00362791       0.12438007 </v>
   <v>       0.25125122       0.00714144       0.62217904 </v>
   <v>       0.24556148       0.49492144       0.12426694 </v>
   <v>       0.26632127       0.48226357       0.62339393 </v>
   <v>       0.75175250       0.99994994       0.12418218 </v>
   <v>       0.74566767       0.00188151       0.62418125 </v>
   <v>       0.76076597       0.49734605       0.11800807 </v>
   <v>       0.74102516       0.50024191       0.62432337 </v>
   <v>       0.25347803       0.00952550       0.37131773 </v>
   <v>       0.25298254       0.00825596       0.88252513 </v>
   <v>       0.24450662       0.48609059       0.37018670 </v>
   <v>       0.25097485       0.49436176       0.87959758 </v>
   <v>       0.74893361       0.00174720       0.37657895 </v>
   <v>       0.74935108       0.00040253       0.88069297 </v>
   <v>       0.74563776       0.49397486       0.37122740 </v>
   <v>       0.74057923       0.49690025       0.87986359 </v>
   <v>       0.50194825       0.00306451       0.75112950 </v>
   <v>       0.49719265       0.50211983       0.74777708 </v>
   <v>       0.00423093      -0.00009031       0.25089525 </v>
   <v>       0.24810057       0.25166326       0.74993300 </v>
   <v>       0.25021787       0.24948935       0.00248200 </v>
   <v>       0.99918494       0.49967996       0.24760130 </v>
   <v>       0.74994232       0.25210547       0.24874205 </v>
   <v>       0.74937326       0.74946782       0.00486283 </v>
   <v>       0.75169986       0.75004301       0.49833508 </v>
   <v>       0.99958777       0.99696345       0.74978144 </v>
   <v>       0.24813787       0.24926960       0.49983164 </v>
   <v>       0.74647657       0.24835932       0.75120373 </v>
   <v>       0.74515924       0.24742887       0.49832828 </v>
   <v>       0.00107884       0.49990981       0.00088289 </v>
   <v>       0.25181950       0.74994099       0.00225805 </v>
   <v>       0.75286049       0.74947355       0.75015970 </v>
   <v>       0.74788915       0.24848871       0.00101816 </v>
   <v>       0.25582890       0.74838926       0.24564949 </v>
   <v>       0.49966120       0.99971461       0.24998464 </v>
   <v>       0.49751754       0.50291974       0.50093742 </v>
   <v>       0.26560498       0.76052650       0.76536856 </v>
   <v>       0.24593516       0.24828416       0.24916782 </v>
   <v>       0.99743986       0.99952564       0.49907950 </v>
   <v>       0.50230589       0.00235705       0.50000085 </v>
   <v>       0.26648332       0.75859505       0.48299935 </v>
   <v>       0.49797649       0.50289768       0.98944936 </v>
   <v>       0.00121449       0.99827418       0.00176374 </v>
   <v>       0.76478797       0.75928844       0.25165057 </v>
   <v>       0.50084036       0.00060016       0.99869481 </v>
   <v>       0.48750873       0.48935240       0.26328468 </v>
   <v>       0.98742686       0.48512559       0.76538570 </v>
   <v>       0.98464683       0.48961793       0.48464299 </v>
   <v>       0.11655342       0.12950574       0.24420488 </v>
   <v>       0.11580483       0.13349340       0.74064155 </v>
   <v>       0.12563951       0.62773236       0.23244127 </v>
   <v>       0.63955399       0.88416059       0.75513840 </v>
   <v>       0.61809843       0.13624570       0.23680565 </v>
   <v>       0.61457916       0.13707157       0.73796195 </v>
   <v>       0.86623204       0.11943814       0.25778031 </v>
   <v>       0.61746578       0.63342278       0.73916121 </v>
   <v>       0.63347025       0.41136335       0.23608246 </v>
   <v>       0.38062367       0.37034977       0.75716248 </v>
   <v>       0.38043949       0.86823843       0.26431098 </v>
   <v>       0.39011360       0.86735072       0.75980944 </v>
   <v>       0.88085603       0.36834023       0.26630884 </v>
   <v>       0.88300935       0.35839749       0.76068305 </v>
   <v>       0.62820341       0.61740386       0.01120217 </v>
   <v>       0.88691358       0.86170612       0.75894258 </v>
   <v>       0.36712861       0.11656288       0.25332426 </v>
   <v>       0.36335618       0.11828607       0.75183616 </v>
   <v>       0.39877532       0.62141925       0.22341739 </v>
   <v>       0.34936877       0.62012068       0.73175175 </v>
   <v>       0.12994964       0.61806007       0.01670489 </v>
   <v>       0.86313067       0.11119419       0.75326240 </v>
   <v>       0.86075584       0.61239343       0.24444360 </v>
   <v>       0.88903354       0.61318064       0.72812045 </v>
   <v>       0.12787171       0.38146654       0.25073271 </v>
   <v>       0.13080056       0.40359530       0.73608011 </v>
   <v>       0.13511879       0.87698208       0.25353778 </v>
   <v>       0.13562961       0.85808693       0.72991804 </v>
   <v>       0.62706882       0.86993936       0.25440498 </v>
   <v>       0.74243745       0.72317513       0.37560721 </v>
   <v>       0.98519183       0.99710659       0.62452175 </v>
   <v>       0.37036128       0.38208469       0.99962221 </v>
   <v>       0.36824959       0.38449725       0.48968524 </v>
   <v>       0.37096308       0.87506503       0.98541586 </v>
   <v>       0.37125153       0.88437436       0.49108274 </v>
   <v>       0.86860378       0.38277758       0.98534102 </v>
   <v>       0.86511475       0.37737313       0.48874520 </v>
   <v>       0.86769083       0.87738411       0.99455739 </v>
   <v>       0.87205393       0.87321573       0.48893736 </v>
   <v>       0.13165043       0.12022082       0.00431292 </v>
   <v>       0.12747420       0.12473688       0.51118991 </v>
   <v>       0.88619171       0.87027355       0.26207296 </v>
   <v>       0.38017061       0.36663202       0.25603342 </v>
   <v>       0.63227599       0.12154034       0.01326691 </v>
   <v>       0.62844157       0.12358738       0.51076629 </v>
   <v>       0.49655403       0.52077985       0.87021554 </v>
   <v>       0.11790267       0.36928475       0.99735838 </v>
   <v>       0.11906948       0.39807036       0.51768624 </v>
   <v>       0.12003030       0.86643545       0.00083901 </v>
   <v>       0.12297725       0.83350056       0.51299796 </v>
   <v>       0.61618002       0.37275440       0.00705641 </v>
   <v>       0.61524503       0.37338081       0.49743019 </v>
   <v>       0.62179135       0.86866249       0.99416684 </v>
   <v>       0.62472082       0.86908011       0.49627110 </v>
   <v>       0.37902393       0.13132142       0.99549301 </v>
   <v>       0.37760672       0.13491866       0.49846107 </v>
   <v>       0.88025969       0.13072410       0.99602880 </v>
   <v>       0.87458245       0.12957701       0.49232664 </v>
   <v>       0.88204357       0.63041875       0.00647297 </v>
   <v>       0.89571669       0.62523620       0.51868343 </v>
   <v>       0.99160485       0.99337598       0.12831490 </v>
   <v>       0.98938105       0.47944634       0.12465714 </v>
   <v>       0.49736707       0.48271985       0.62551415 </v>
   <v>       0.48818944       0.99055765       0.12587917 </v>
   <v>       0.49278011       0.99017486       0.62697790 </v>
   <v>       0.38055978       0.62628372       0.01422179 </v>
   <v>       0.62693329       0.62135598       0.51337521 </v>
   <v>       0.01982316       0.00117761       0.37741596 </v>
   <v>       0.01788534       0.99811351       0.87014384 </v>
   <v>       0.01749630       0.52617061       0.37294719 </v>
   <v>       0.63262823       0.38722516       0.75391781 </v>
   <v>       0.51381644       0.01268790       0.37388765 </v>
   <v>       0.51244853       0.01526772       0.87284566 </v>
   <v>       0.50421283       0.53060099       0.37781394 </v>
   <v>       0.23167869       0.24989699       0.37911476 </v>
   <v>       0.23727889       0.25259235       0.87203342 </v>
   <v>       0.24868842       0.71549907       0.36921434 </v>
   <v>       0.36198527       0.63024131       0.52321192 </v>
   <v>       0.72496353       0.24920817       0.37212367 </v>
   <v>       0.73263191       0.24119142       0.87544789 </v>
   <v>       0.01656849       0.52517647       0.87657826 </v>
   <v>       0.75090736       0.72683357       0.87275312 </v>
   <v>       0.25408849       0.25405342       0.12393491 </v>
   <v>       0.26208591       0.25557917       0.62573712 </v>
   <v>       0.26043994       0.77265407       0.12527923 </v>
   <v>       0.23394097       0.72514051       0.87727484 </v>
   <v>       0.76950811       0.26038422       0.12609019 </v>
   <v>       0.75944802       0.26156115       0.62489136 </v>
   <v>       0.74596404       0.75535681       0.12779964 </v>
   <v>       0.75234826       0.76553551       0.62547980 </v>
  </varray>
 </structure>
</modeling>
