       N       E                     dE             d eps       ncg     rms          rms(c)
DAV:   1    -0.108857933219E+04   -0.10886E+04   -0.15329E-01 13312   0.904E-01    0.344E-02
RMM:   2    -0.108857933926E+04   -0.70677E-05   -0.60293E-05  7169   0.156E-02    0.413E-02
RMM:   3    -0.108857934178E+04   -0.25238E-05   -0.22491E-05  7094   0.101E-02    0.119E-02
RMM:   4    -0.108857934710E+04   -0.53175E-05   -0.14805E-05  7036   0.621E-03    0.107E-02
RMM:   5    -0.108857935085E+04   -0.37564E-05   -0.93569E-06  6870   0.589E-03    0.806E-03
RMM:   6    -0.108857935325E+04   -0.23925E-05   -0.70348E-06  5758   0.373E-03    0.468E-03
RMM:   7    -0.108857935462E+04   -0.13680E-05   -0.42665E-06  5102   0.375E-03    0.443E-03
RMM:   8    -0.108857935599E+04   -0.13794E-05   -0.34969E-06  4532   0.279E-03
   1 F= -.10885794E+04 E0= -.10885794E+04  d E =-.108858E+04  mag=    52.0000
       N       E                     dE             d eps       ncg     rms          rms(c)
DAV:   1    -0.108857952584E+04   -0.17122E-03   -0.16591E+00 12480   0.150E+00    0.544E-01
RMM:   2    -0.108858338273E+04   -0.38569E-02   -0.50456E-02 12342   0.312E-01    0.440E-01
RMM:   3    -0.108858340328E+04   -0.20551E-04   -0.32104E-03 12942   0.112E-01    0.260E-01
RMM:   4    -0.108858297612E+04    0.42717E-03   -0.11017E-03 11686   0.401E-02    0.152E-01
RMM:   5    -0.108858285354E+04    0.12258E-03   -0.44332E-04 10448   0.295E-02    0.594E-02
RMM:   6    -0.108858285478E+04   -0.12388E-05   -0.75905E-05  7451   0.153E-02    0.430E-02
RMM:   7    -0.108858285634E+04   -0.15633E-05   -0.30011E-05  7326   0.980E-03    0.255E-02
RMM:   8    -0.108858285769E+04   -0.13507E-05   -0.17629E-05  7185   0.716E-03
   2 F= -.10885829E+04 E0= -.10885829E+04  d E =-.350170E-02  mag=    52.0000
       N       E                     dE             d eps       ncg     rms          rms(c)
DAV:   1    -0.108858299304E+04   -0.13670E-03   -0.76751E-02 13320   0.324E-01    0.120E-01
RMM:   2    -0.108858316671E+04   -0.17367E-03   -0.23065E-03 12167   0.677E-02    0.962E-02
RMM:   3    -0.108858316500E+04    0.17149E-05   -0.10666E-04  7063   0.255E-02    0.534E-02
RMM:   4    -0.108858314669E+04    0.18304E-04   -0.57219E-05  6914   0.109E-02    0.354E-02
RMM:   5    -0.108858314326E+04    0.34332E-05   -0.22233E-05  6705   0.791E-03    0.300E-02
RMM:   6    -0.108858314340E+04   -0.13692E-06   -0.96781E-06  6060   0.513E-03    0.799E-03
RMM:   7    -0.108858314368E+04   -0.28587E-06   -0.28969E-06  4774   0.322E-03    0.610E-03
RMM:   8    -0.108858314387E+04   -0.19015E-06   -0.13385E-06  3972   0.230E-03
   3 F= -.10885831E+04 E0= -.10885831E+04  d E =-.378788E-02  mag=    52.0000
       N       E                     dE             d eps       ncg     rms          rms(c)
DAV:   1    -0.108858238741E+04    0.75627E-03   -0.16600E+00 12688   0.151E+00    0.415E-01
RMM:   2    -0.108858678033E+04   -0.43929E-02   -0.41487E-02 12426   0.277E-01    0.263E-01
RMM:   3    -0.108858700789E+04   -0.22756E-03   -0.26125E-03 12260   0.115E-01    0.159E-01
RMM:   4    -0.108858690635E+04    0.10154E-03   -0.64856E-04 11645   0.323E-02    0.852E-02
RMM:   5    -0.108858688157E+04    0.24778E-04   -0.16131E-04  7469   0.210E-02    0.415E-02
RMM:   6    -0.108858688788E+04   -0.63128E-05   -0.52981E-05  7189   0.141E-02    0.223E-02
RMM:   7    -0.108858689115E+04   -0.32619E-05   -0.27736E-05  7118   0.868E-03    0.117E-02
RMM:   8    -0.108858689280E+04   -0.16524E-05   -0.15314E-05  6989   0.738E-03
   4 F= -.10885869E+04 E0= -.10885869E+04  d E =-.374893E-02  mag=    52.0000
       N       E                     dE             d eps       ncg     rms          rms(c)
DAV:   1    -0.108858324525E+04    0.36459E-02   -0.18349E+00 12624   0.159E+00    0.435E-01
RMM:   2    -0.108858814907E+04   -0.49038E-02   -0.46340E-02 12470   0.293E-01    0.276E-01
RMM:   3    -0.108858840736E+04   -0.25829E-03   -0.30115E-03 12416   0.120E-01    0.168E-01
RMM:   4    -0.108858829660E+04    0.11076E-03   -0.76435E-04 12173   0.341E-02    0.897E-02
RMM:   5    -0.108858826948E+04    0.27125E-04   -0.19933E-04  7799   0.219E-02    0.415E-02
RMM:   6    -0.108858827607E+04   -0.65887E-05   -0.61726E-05  7223   0.154E-02    0.247E-02
RMM:   7    -0.108858828012E+04   -0.40582E-05   -0.34638E-05  7162   0.938E-03    0.127E-02
RMM:   8    -0.108858828226E+04   -0.21376E-05   -0.19672E-05  7064   0.852E-03
   5 F= -.10885883E+04 E0= -.10885883E+04  d E =-.513839E-02  mag=    52.0000
       N       E                     dE             d eps       ncg     rms          rms(c)
DAV:   1    -0.108858732142E+04    0.95870E-03   -0.14961E+00 12688   0.143E+00    0.360E-01
RMM:   2    -0.108859117384E+04   -0.38524E-02   -0.37613E-02 12672   0.259E-01    0.238E-01
RMM:   3    -0.108859132124E+04   -0.14739E-03   -0.23178E-03 12406   0.104E-01    0.143E-01
RMM:   4    -0.108859124711E+04    0.74131E-04   -0.54219E-04 10840   0.291E-02    0.840E-02
RMM:   5    -0.108859121718E+04    0.29924E-04   -0.16485E-04  7463   0.199E-02    0.427E-02
RMM:   6    -0.108859122361E+04   -0.64318E-05   -0.54263E-05  7178   0.150E-02    0.200E-02
RMM:   7    -0.108859122739E+04   -0.37809E-05   -0.30759E-05  7094   0.827E-03    0.111E-02
RMM:   8    -0.108859122927E+04   -0.18789E-05   -0.16758E-05  6988   0.844E-03
   6 F= -.10885912E+04 E0= -.10885912E+04  d E =-.294701E-02  mag=    52.0000
       N       E                     dE             d eps       ncg     rms          rms(c)
DAV:   1    -0.108858658568E+04    0.46417E-02   -0.22751E+00 12640   0.176E+00    0.442E-01
RMM:   2    -0.108859243331E+04   -0.58476E-02   -0.57061E-02 12615   0.319E-01    0.292E-01
RMM:   3    -0.108859266522E+04   -0.23191E-03   -0.35218E-03 12564   0.128E-01    0.176E-01
RMM:   4    -0.108859255481E+04    0.11041E-03   -0.84112E-04 12455   0.358E-02    0.103E-01
RMM:   5    -0.108859251418E+04    0.40638E-04   -0.27689E-04  8629   0.222E-02    0.479E-02
RMM:   6    -0.108859252095E+04   -0.67724E-05   -0.67837E-05  7250   0.158E-02    0.264E-02
RMM:   7    -0.108859252532E+04   -0.43715E-05   -0.37688E-05  7165   0.960E-03    0.136E-02
RMM:   8    -0.108859252771E+04   -0.23877E-05   -0.21347E-05  7088   0.900E-03
   7 F= -.10885925E+04 E0= -.10885925E+04  d E =-.424545E-02  mag=    52.0000
       N       E                     dE             d eps       ncg     rms          rms(c)
DAV:   1    -0.108859028795E+04    0.22374E-02   -0.18695E+00 12608   0.159E+00    0.384E-01
RMM:   2    -0.108859501565E+04   -0.47277E-02   -0.46341E-02 12578   0.284E-01    0.244E-01
RMM:   3    -0.108859518343E+04   -0.16779E-03   -0.27967E-03 12391   0.116E-01    0.142E-01
RMM:   4    -0.108859509393E+04    0.89507E-04   -0.70284E-04 11803   0.329E-02    0.825E-02
RMM:   5    -0.108859506073E+04    0.33199E-04   -0.18642E-04  7655   0.210E-02    0.492E-02
RMM:   6    -0.108859506672E+04   -0.59865E-05   -0.64766E-05  7193   0.156E-02    0.196E-02
RMM:   7    -0.108859507081E+04   -0.40919E-05   -0.35683E-05  7118   0.941E-03    0.125E-02
RMM:   8    -0.108859507274E+04   -0.19339E-05   -0.19936E-05  6933   0.877E-03
   8 F= -.10885951E+04 E0= -.10885951E+04  d E =-.254503E-02  mag=    52.0000
       N       E                     dE             d eps       ncg     rms          rms(c)
DAV:   1    -0.108859163584E+04    0.34350E-02   -0.16285E+00 12656   0.149E+00    0.358E-01
RMM:   2    -0.108859576755E+04   -0.41317E-02   -0.40495E-02 12632   0.266E-01    0.229E-01
RMM:   3    -0.108859592116E+04   -0.15361E-03   -0.25031E-03 12433   0.109E-01    0.133E-01
RMM:   4    -0.108859584406E+04    0.77097E-04   -0.59923E-04 11286   0.307E-02    0.804E-02
RMM:   5    -0.108859581276E+04    0.31306E-04   -0.16186E-04  7503   0.201E-02    0.537E-02
RMM:   6    -0.108859581792E+04   -0.51634E-05   -0.63823E-05  7202   0.152E-02    0.184E-02
RMM:   7    -0.108859582181E+04   -0.38916E-05   -0.33269E-05  7109   0.922E-03    0.114E-02
RMM:   8    -0.108859582367E+04   -0.18531E-05   -0.18564E-05  6898   0.834E-03
   9 F= -.10885958E+04 E0= -.10885958E+04  d E =-.329596E-02  mag=    52.0000
       N       E                     dE             d eps       ncg     rms          rms(c)
DAV:   1    -0.108859276708E+04    0.30547E-02   -0.20940E+00 12544   0.168E+00    0.415E-01
RMM:   2    -0.108859810473E+04   -0.53377E-02   -0.51824E-02 12589   0.305E-01    0.274E-01
RMM:   3    -0.108859833783E+04   -0.23310E-03   -0.32621E-03 12532   0.124E-01    0.158E-01
RMM:   4    -0.108859825536E+04    0.82471E-04   -0.71818E-04 11840   0.341E-02    0.101E-01
RMM:   5    -0.108859821056E+04    0.44798E-04   -0.25942E-04  8194   0.224E-02    0.778E-02
RMM:   6    -0.108859821126E+04   -0.69318E-06   -0.87538E-05  7235   0.176E-02    0.261E-02
RMM:   7    -0.108859821555E+04   -0.42921E-05   -0.38616E-05  7105   0.986E-03    0.130E-02
RMM:   8    -0.108859821717E+04   -0.16248E-05   -0.19780E-05  6934   0.873E-03
  10 F= -.10885982E+04 E0= -.10885982E+04  d E =-.239351E-02  mag=    52.0000
       N       E                     dE             d eps       ncg     rms          rms(c)
DAV:   1    -0.108859386262E+04    0.43529E-02   -0.19580E+00 12544   0.163E+00    0.401E-01
RMM:   2    -0.108859886306E+04   -0.50004E-02   -0.48518E-02 12557   0.294E-01    0.265E-01
RMM:   3    -0.108859908176E+04   -0.21870E-03   -0.30269E-03 12465   0.120E-01    0.153E-01
RMM:   4    -0.108859900706E+04    0.74703E-04   -0.67238E-04 11710   0.331E-02    0.976E-02
RMM:   5    -0.108859896611E+04    0.40950E-04   -0.24178E-04  8052   0.222E-02    0.774E-02
RMM:   6    -0.108859896694E+04   -0.83008E-06   -0.86446E-05  7235   0.176E-02    0.253E-02
RMM:   7    -0.108859897123E+04   -0.42901E-05   -0.38768E-05  7112   0.978E-03    0.130E-02
RMM:   8    -0.108859897289E+04   -0.16655E-05   -0.19784E-05  6914   0.885E-03
  11 F= -.10885990E+04 E0= -.10885990E+04  d E =-.314923E-02  mag=    52.0000
       N       E                     dE             d eps       ncg     rms          rms(c)
DAV:   1    -0.108859695510E+04    0.20161E-02   -0.13097E+00 12600   0.134E+00    0.350E-01
RMM:   2    -0.108860046051E+04   -0.35054E-02   -0.32887E-02 12618   0.243E-01    0.229E-01
RMM:   3    -0.108860063865E+04   -0.17814E-03   -0.21005E-03 12464   0.994E-02    0.129E-01
RMM:   4    -0.108860058019E+04    0.58466E-04   -0.43204E-04 10021   0.274E-02    0.811E-02
RMM:   5    -0.108860054985E+04    0.30334E-04   -0.16624E-04  7457   0.199E-02    0.549E-02
RMM:   6    -0.108860055448E+04   -0.46248E-05   -0.61848E-05  7167   0.158E-02    0.240E-02
RMM:   7    -0.108860055852E+04   -0.40386E-05   -0.30249E-05  7062   0.829E-03    0.113E-02
RMM:   8    -0.108860056045E+04   -0.19373E-05   -0.15915E-05  6994   0.827E-03
  12 F= -.10886006E+04 E0= -.10886006E+04  d E =-.158756E-02  mag=    52.0000
       N       E                     dE             d eps       ncg     rms          rms(c)
DAV:   1    -0.108859930574E+04    0.12528E-02   -0.57670E-01 12768   0.886E-01    0.232E-01
RMM:   2    -0.108860086664E+04   -0.15609E-02   -0.14630E-02 12706   0.162E-01    0.151E-01
RMM:   3    -0.108860093743E+04   -0.70788E-04   -0.89266E-04 11251   0.639E-02    0.864E-02
RMM:   4    -0.108860091046E+04    0.26968E-04   -0.15702E-04  7505   0.187E-02    0.560E-02
RMM:   5    -0.108860090009E+04    0.10376E-04   -0.77653E-05  7172   0.141E-02    0.266E-02
RMM:   6    -0.108860090421E+04   -0.41219E-05   -0.31251E-05  7069   0.107E-02    0.129E-02
RMM:   7    -0.108860090632E+04   -0.21082E-05   -0.16779E-05  6945   0.655E-03    0.796E-03
RMM:   8    -0.108860090756E+04   -0.12388E-05   -0.97109E-06  6787   0.580E-03
  13 F= -.10886009E+04 E0= -.10886009E+04  d E =-.193466E-02  mag=    52.0000
       N       E                     dE             d eps       ncg     rms          rms(c)
DAV:   1    -0.108859944225E+04    0.14641E-02   -0.98437E-01 12384   0.116E+00    0.323E-01
RMM:   2    -0.108860210580E+04   -0.26636E-02   -0.24461E-02 12569   0.210E-01    0.200E-01
RMM:   3    -0.108860225796E+04   -0.15216E-03   -0.15433E-03 12164   0.851E-02    0.111E-01
RMM:   4    -0.108860219946E+04    0.58496E-04   -0.33405E-04  8955   0.243E-02    0.670E-02
RMM:   5    -0.108860217566E+04    0.23801E-04   -0.11644E-04  7305   0.174E-02    0.380E-02
RMM:   6    -0.108860218009E+04   -0.44374E-05   -0.44331E-05  7148   0.131E-02    0.195E-02
RMM:   7    -0.108860218277E+04   -0.26782E-05   -0.22270E-05  6997   0.741E-03    0.922E-03
RMM:   8    -0.108860218406E+04   -0.12874E-05   -0.12133E-05  6790   0.685E-03
  14 F= -.10886022E+04 E0= -.10886022E+04  d E =-.127650E-02  mag=    52.0000
