<?xml version="1.0" encoding="ISO-8859-1"?>
<modeling>
 <generator>
  <i name="program" type="string">vasp </i>
  <i name="version" type="string">5.4.1  </i>
  <i name="subversion" type="string">05Feb16 (build Jan 25 2017 20:16:33) complex                          parallel </i>
  <i name="platform" type="string">BWXE6 </i>
  <i name="date" type="string">2019 08 12 </i>
  <i name="time" type="string">10:31:43 </i>
 </generator>
 <incar>
  <i type="string" name="SYSTEM"> STF</i>
  <i type="string" name="PREC">normal</i>
  <i type="string" name="ALGO"> Fast</i>
  <i type="int" name="ISPIN">     2</i>
  <i type="int" name="NELM">    40</i>
  <i type="int" name="NELMIN">     8</i>
  <i type="int" name="IBRION">     2</i>
  <i name="EDIFF">      0.00010000</i>
  <i name="EDIFFG">     -0.03000000</i>
  <i type="int" name="NSW">    30</i>
  <i type="int" name="ISIF">     3</i>
  <i name="ENCUT">    520.00000000</i>
  <i type="int" name="NBANDS">   768</i>
  <v name="MAGMOM">      0.60000000      0.60000000      0.60000000      0.60000000      0.60000000      0.60000000      0.60000000      0.60000000      0.60000000      0.60000000      0.60000000      0.60000000      0.60000000      0.60000000      0.60000000      0.60000000      0.60000000      0.60000000      0.60000000      0.60000000
      0.60000000      0.60000000      0.60000000      0.60000000      0.60000000      0.60000000      0.60000000      0.60000000      0.60000000      0.60000000      0.60000000      0.60000000      0.60000000      0.60000000      0.60000000      0.60000000      0.60000000      0.60000000      0.60000000      0.60000000
      0.60000000      0.60000000      0.60000000      0.60000000      0.60000000      0.60000000      0.60000000      0.60000000      0.60000000      0.60000000      0.60000000      0.60000000      5.00000000      5.00000000      5.00000000      5.00000000      5.00000000      5.00000000      5.00000000      5.00000000
      5.00000000      5.00000000      5.00000000      5.00000000      0.60000000      0.60000000      0.60000000      0.60000000      0.60000000      0.60000000      0.60000000      0.60000000      0.60000000      0.60000000      0.60000000      0.60000000      0.60000000      0.60000000      0.60000000      0.60000000
      0.60000000      0.60000000      0.60000000      0.60000000      0.60000000      0.60000000      0.60000000      0.60000000      0.60000000      0.60000000      0.60000000      0.60000000      0.60000000      0.60000000      0.60000000      0.60000000      0.60000000      0.60000000      0.60000000      0.60000000
      0.60000000      0.60000000      0.60000000      0.60000000      0.60000000      0.60000000      0.60000000      0.60000000      0.60000000      0.60000000      0.60000000      0.60000000      0.60000000      0.60000000      0.60000000      0.60000000      0.60000000      0.60000000      0.60000000      0.60000000
      0.60000000      0.60000000      0.60000000      0.60000000      0.60000000      0.60000000      0.60000000      0.60000000      0.60000000      0.60000000      0.60000000      0.60000000      0.60000000      0.60000000      0.60000000      0.60000000      0.60000000      0.60000000      0.60000000      0.60000000
      0.60000000      0.60000000      0.60000000      0.60000000      0.60000000      0.60000000      0.60000000      0.60000000      0.60000000      0.60000000      0.60000000      0.60000000      0.60000000      0.60000000</v>
  <i type="string" name="LREAL"> Auto</i>
  <i type="int" name="ISMEAR">     0</i>
  <i name="SIGMA">      0.05000000</i>
  <i type="int" name="LMAXMIX">     4</i>
  <v type="int" name="KPOINT_BSE">    -1     0     0     0</v>
  <i type="int" name="NELM">    40</i>
  <i type="logical" name="LDAU"> T  </i>
  <v type="int" name="LDAUTYPE">     2</v>
  <v type="int" name="LDAUL">     0     2     2     0</v>
  <v name="LDAUU">      0.00000000      3.00000000      5.00000000      0.00000000</v>
  <v name="LDAUJ">      0.00000000      0.00000000      0.00000000      0.00000000</v>
  <i type="int" name="LDAUPRINT">     1</i>
 </incar>
 <kpoints>
  <generation param="Monkhorst-Pack">
   <v type="int" name="divisions">       2        2        2 </v>
   <v name="usershift">      0.00000000       0.00000000       0.00000000 </v>
   <v name="genvec1">      0.50000000      -0.00000000       0.00000000 </v>
   <v name="genvec2">      0.00000000       0.50000000       0.00000000 </v>
   <v name="genvec3">      0.00000000      -0.00000000       0.50000000 </v>
   <v name="shift">      0.50000000       0.50000000       0.50000000 </v>
  </generation>
  <varray name="kpointlist" >
   <v>       0.25000000       0.25000000       0.25000000 </v>
   <v>      -0.25000000       0.25000000       0.25000000 </v>
   <v>       0.25000000      -0.25000000       0.25000000 </v>
   <v>      -0.25000000      -0.25000000       0.25000000 </v>
  </varray>
  <varray name="weights" >
   <v>       0.25000000 </v>
   <v>       0.25000000 </v>
   <v>       0.25000000 </v>
   <v>       0.25000000 </v>
  </varray>
 </kpoints>
 <parameters>
  <separator name="general" >
   <i type="string" name="SYSTEM">STF</i>
   <i type="logical" name="LCOMPAT"> F  </i>
  </separator>
  <separator name="electronic" >
   <i type="string" name="PREC">normal</i>
   <i name="ENMAX">    520.00000000</i>
   <i name="ENAUG">    605.39200000</i>
   <i name="EDIFF">      0.00010000</i>
   <i type="int" name="IALGO">    68</i>
   <i type="int" name="IWAVPR">    11</i>
   <i type="int" name="NBANDS">   768</i>
   <i name="NELECT">   1036.00000000</i>
   <i type="int" name="TURBO">     0</i>
   <i type="int" name="IRESTART">     0</i>
   <i type="int" name="NREBOOT">     0</i>
   <i type="int" name="NMIN">     0</i>
   <i name="EREF">      0.00000000</i>
   <separator name="electronic smearing" >
    <i type="int" name="ISMEAR">     0</i>
    <i name="SIGMA">      0.05000000</i>
    <i name="KSPACING">      0.50000000</i>
    <i type="logical" name="KGAMMA"> T  </i>
   </separator>
   <separator name="electronic projectors" >
    <i type="logical" name="LREAL"> T  </i>
    <v name="ROPT">     -0.00050000     -0.00050000     -0.00050000     -0.00050000</v>
    <i type="int" name="LMAXPAW">  -100</i>
    <i type="int" name="LMAXMIX">     4</i>
    <i type="logical" name="NLSPLINE"> F  </i>
   </separator>
   <separator name="electronic startup" >
    <i type="int" name="ISTART">     1</i>
    <i type="int" name="ICHARG">     0</i>
    <i type="int" name="INIWAV">     1</i>
   </separator>
   <separator name="electronic spin" >
    <i type="int" name="ISPIN">     2</i>
    <i type="logical" name="LNONCOLLINEAR"> F  </i>
    <v name="MAGMOM">      0.60000000      0.60000000      0.60000000      0.60000000      0.60000000      0.60000000      0.60000000      0.60000000      0.60000000      0.60000000      0.60000000      0.60000000      0.60000000      0.60000000      0.60000000      0.60000000      0.60000000      0.60000000      0.60000000      0.60000000
      0.60000000      0.60000000      0.60000000      0.60000000      0.60000000      0.60000000      0.60000000      0.60000000      0.60000000      0.60000000      0.60000000      0.60000000      0.60000000      0.60000000      0.60000000      0.60000000      0.60000000      0.60000000      0.60000000      0.60000000
      0.60000000      0.60000000      0.60000000      0.60000000      0.60000000      0.60000000      0.60000000      0.60000000      0.60000000      0.60000000      0.60000000      0.60000000      5.00000000      5.00000000      5.00000000      5.00000000      5.00000000      5.00000000      5.00000000      5.00000000
      5.00000000      5.00000000      5.00000000      5.00000000      0.60000000      0.60000000      0.60000000      0.60000000      0.60000000      0.60000000      0.60000000      0.60000000      0.60000000      0.60000000      0.60000000      0.60000000      0.60000000      0.60000000      0.60000000      0.60000000
      0.60000000      0.60000000      0.60000000      0.60000000      0.60000000      0.60000000      0.60000000      0.60000000      0.60000000      0.60000000      0.60000000      0.60000000      0.60000000      0.60000000      0.60000000      0.60000000      0.60000000      0.60000000      0.60000000      0.60000000
      0.60000000      0.60000000      0.60000000      0.60000000      0.60000000      0.60000000      0.60000000      0.60000000      0.60000000      0.60000000      0.60000000      0.60000000      0.60000000      0.60000000      0.60000000      0.60000000      0.60000000      0.60000000      0.60000000      0.60000000
      0.60000000      0.60000000      0.60000000      0.60000000      0.60000000      0.60000000      0.60000000      0.60000000      0.60000000      0.60000000      0.60000000      0.60000000      0.60000000      0.60000000      0.60000000      0.60000000      0.60000000      0.60000000      0.60000000      0.60000000
      0.60000000      0.60000000      0.60000000      0.60000000      0.60000000      0.60000000      0.60000000      0.60000000      0.60000000      0.60000000      0.60000000      0.60000000      0.60000000      0.60000000</v>
    <i name="NUPDOWN">     -1.00000000</i>
    <i type="logical" name="LSORBIT"> F  </i>
    <v name="SAXIS">      0.00000000      0.00000000      1.00000000</v>
    <i type="logical" name="LSPIRAL"> F  </i>
    <v name="QSPIRAL">      0.00000000      0.00000000      0.00000000</v>
    <i type="logical" name="LZEROZ"> F  </i>
   </separator>
   <separator name="electronic exchange-correlation" >
    <i type="logical" name="LASPH"> F  </i>
    <i type="logical" name="LMETAGGA"> F  </i>
   </separator>
   <separator name="electronic convergence" >
    <i type="int" name="NELM">    40</i>
    <i type="int" name="NELMDL">     0</i>
    <i type="int" name="NELMIN">     8</i>
    <i name="ENINI">    520.00000000</i>
    <separator name="electronic convergence detail" >
     <i type="logical" name="LDIAG"> T  </i>
     <i type="logical" name="LSUBROT"> F  </i>
     <i name="WEIMIN">      0.00100000</i>
     <i name="EBREAK">      0.00000003</i>
     <i name="DEPER">      0.30000000</i>
     <i type="int" name="NRMM">     4</i>
     <i name="TIME">      0.40000000</i>
    </separator>
   </separator>
   <separator name="electronic mixer" >
    <i name="AMIX">      0.40000000</i>
    <i name="BMIX">      1.00000000</i>
    <i name="AMIN">      0.10000000</i>
    <i name="AMIX_MAG">      1.60000000</i>
    <i name="BMIX_MAG">      1.00000000</i>
    <separator name="electronic mixer details" >
     <i type="int" name="IMIX">     4</i>
     <i type="logical" name="MIXFIRST"> F  </i>
     <i type="int" name="MAXMIX">   -45</i>
     <i name="WC">    100.00000000</i>
     <i type="int" name="INIMIX">     1</i>
     <i type="int" name="MIXPRE">     1</i>
     <i type="int" name="MREMOVE">     5</i>
    </separator>
   </separator>
   <separator name="electronic dipolcorrection" >
    <i type="logical" name="LDIPOL"> F  </i>
    <i type="logical" name="LMONO"> F  </i>
    <i type="int" name="IDIPOL">     0</i>
    <i name="EPSILON">      1.00000000</i>
    <v name="DIPOL">   -100.00000000   -100.00000000   -100.00000000</v>
    <i name="EFIELD">      0.00000000</i>
   </separator>
  </separator>
  <separator name="grids" >
   <i type="int" name="NGX">    64</i>
   <i type="int" name="NGY">    64</i>
   <i type="int" name="NGZ">    90</i>
   <i type="int" name="NGXF">   128</i>
   <i type="int" name="NGYF">   128</i>
   <i type="int" name="NGZF">   180</i>
   <i type="logical" name="ADDGRID"> F  </i>
  </separator>
  <separator name="ionic" >
   <i type="int" name="NSW">    30</i>
   <i type="int" name="IBRION">     2</i>
   <i type="int" name="ISIF">     3</i>
   <i name="PSTRESS">      0.00000000</i>
   <i name="EDIFFG">     -0.03000000</i>
   <i type="int" name="NFREE">     1</i>
   <i name="POTIM">      0.50000000</i>
   <i name="SMASS">     -3.00000000</i>
   <i name="SCALEE">      1.00000000</i>
  </separator>
  <separator name="ionic md" >
   <i name="TEBEG">      0.00010000</i>
   <i name="TEEND">      0.00010000</i>
   <i type="int" name="NBLOCK">     1</i>
   <i type="int" name="KBLOCK">    30</i>
   <i type="int" name="NPACO">   256</i>
   <i name="APACO">     16.00000000</i>
  </separator>
  <separator name="symmetry" >
   <i type="int" name="ISYM">     2</i>
   <i name="SYMPREC">      0.00001000</i>
  </separator>
  <separator name="dos" >
   <i type="logical" name="LORBIT"> F  </i>
   <v name="RWIGS">     -1.00000000     -1.00000000     -1.00000000     -1.00000000</v>
   <i type="int" name="NEDOS">   301</i>
   <i name="EMIN">     10.00000000</i>
   <i name="EMAX">    -10.00000000</i>
   <i name="EFERMI">      0.00000000</i>
  </separator>
  <separator name="writing" >
   <i type="int" name="NWRITE">     2</i>
   <i type="logical" name="LWAVE"> T  </i>
   <i type="logical" name="LCHARG"> T  </i>
   <i type="logical" name="LPARD"> F  </i>
   <i type="logical" name="LVTOT"> F  </i>
   <i type="logical" name="LVHAR"> F  </i>
   <i type="logical" name="LELF"> F  </i>
   <i type="logical" name="LOPTICS"> F  </i>
   <v name="STM">      0.00000000      0.00000000      0.00000000      0.00000000      0.00000000      0.00000000      0.00000000</v>
  </separator>
  <separator name="performance" >
   <i type="int" name="NPAR">     2</i>
   <i type="int" name="NSIM">     4</i>
   <i type="int" name="NBLK">    -1</i>
   <i type="logical" name="LPLANE"> T  </i>
   <i type="logical" name="LSCALAPACK"> T  </i>
   <i type="logical" name="LSCAAWARE"> F  </i>
   <i type="logical" name="LSCALU"> F  </i>
   <i type="logical" name="LASYNC"> F  </i>
   <i type="logical" name="LORBITALREAL"> F  </i>
  </separator>
  <separator name="miscellaneous" >
   <i type="int" name="IDIOT">     3</i>
   <i type="logical" name="LMUSIC"> F  </i>
   <v name="POMASS">     87.62000000     47.88000000     55.84700000     16.00000000</v>
   <v name="DARWINR">      0.00000000      0.00000000      0.00000000      0.00000000</v>
   <v name="DARWINV">      1.00000000      1.00000000      1.00000000      1.00000000</v>
   <i type="logical" name="LCORR"> T  </i>
  </separator>
  <i type="logical" name="GGA_COMPAT"> T  </i>
  <i type="logical" name="LBERRY"> F  </i>
  <i type="int" name="ICORELEVEL">     0</i>
  <i type="logical" name="LDAU"> T  </i>
  <v type="int" name="LDAUTYPE">     2</v>
  <v type="int" name="LDAUL">     0</v>
  <v name="LDAUU">      0.00000000</v>
  <v name="LDAUJ">      0.00000000</v>
  <i type="int" name="LDAUPRINT">     1</i>
  <i type="int" name="I_CONSTRAINED_M">     0</i>
  <separator name="electronic exchange-correlation" >
   <i type="string" name="GGA">--</i>
   <i type="int" name="VOSKOWN">     0</i>
   <i type="logical" name="LHFCALC"> F  </i>
   <i type="string" name="PRECFOCK"></i>
   <i type="logical" name="LSYMGRAD"> F  </i>
   <i type="logical" name="LHFONE"> F  </i>
   <i type="logical" name="LRHFCALC"> F  </i>
   <i type="logical" name="LTHOMAS"> F  </i>
   <i type="logical" name="LMODELHF"> F  </i>
   <i name="ENCUT4O">     -1.00000000</i>
   <i type="int" name="EXXOEP">     0</i>
   <i type="int" name="FOURORBIT">     0</i>
   <i name="AEXX">      0.00000000</i>
   <i name="HFALPHA">      0.00000000</i>
   <i name="MCALPHA">      0.00000000</i>
   <i name="ALDAX">      1.00000000</i>
   <i name="AGGAX">      1.00000000</i>
   <i name="ALDAC">      1.00000000</i>
   <i name="AGGAC">      1.00000000</i>
   <i type="int" name="NKREDX">     1</i>
   <i type="int" name="NKREDY">     1</i>
   <i type="int" name="NKREDZ">     1</i>
   <i type="logical" name="SHIFTRED"> F  </i>
   <i type="logical" name="ODDONLY"> F  </i>
   <i type="logical" name="EVENONLY"> F  </i>
   <i type="int" name="LMAXFOCK">     0</i>
   <i type="int" name="NMAXFOCKAE">     0</i>
   <i type="logical" name="LFOCKAEDFT"> F  </i>
   <i name="HFSCREEN">      0.00000000</i>
   <i name="HFSCREENC">      0.00000000</i>
   <i type="int" name="NBANDSGWLOW">     0</i>
  </separator>
  <separator name="vdW DFT" >
   <i type="logical" name="LUSE_VDW"> F  </i>
   <i name="Zab_VDW">     -0.84910000</i>
   <i name="PARAM1">      0.12340000</i>
   <i name="PARAM2">      1.00000000</i>
   <i name="PARAM3">      0.00000000</i>
  </separator>
  <separator name="model GW" >
   <i type="int" name="MODEL_GW">     0</i>
   <i name="MODEL_EPS0">      7.82009325</i>
   <i name="MODEL_ALPHA">      1.00000000</i>
  </separator>
  <separator name="linear response parameters" >
   <i type="logical" name="LEPSILON"> F  </i>
   <i type="logical" name="LRPA"> F  </i>
   <i type="logical" name="LNABLA"> F  </i>
   <i type="logical" name="LVEL"> F  </i>
   <i type="int" name="KINTER">     0</i>
   <i name="CSHIFT">      0.10000000</i>
   <i name="OMEGAMAX">     -1.00000000</i>
   <i name="DEG_THRESHOLD">      0.00200000</i>
  </separator>
  <separator name="orbital magnetization" >
   <i type="logical" name="NUCIND"> F  </i>
   <v name="MAGPOS">      0.00000000      0.00000000      0.00000000</v>
   <i type="logical" name="LNICSALL"> T  </i>
   <i type="logical" name="ORBITALMAG"> F  </i>
   <i type="logical" name="LMAGBLOCH"> F  </i>
   <i type="logical" name="LCHIMAG"> F  </i>
   <i type="logical" name="LGAUGE"> T  </i>
   <i type="int" name="MAGATOM">     0</i>
   <v name="MAGDIPOL">      0.00000000      0.00000000      0.00000000</v>
   <v name="AVECCONST">      0.00000000      0.00000000      0.00000000</v>
  </separator>
  <separator name="response functions" >
   <i type="logical" name="LADDER"> F  </i>
   <i type="logical" name="LFXC"> F  </i>
   <i type="logical" name="LHARTREE"> T  </i>
   <i type="int" name="IBSE">     0</i>
   <v type="int" name="KPOINT">    -1     0     0     0</v>
   <i type="logical" name="LTCTE"> F  </i>
   <i type="logical" name="LTETE"> F  </i>
   <i type="logical" name="LTRIPLET"> F  </i>
   <i type="logical" name="LFXCEPS"> F  </i>
   <i type="logical" name="LFXHEG"> F  </i>
   <i type="int" name="NATURALO">     0</i>
   <i type="logical" name="L2ORDER"> F  </i>
   <i type="logical" name="LUSEW"> F  </i>
   <i name="ENCUTGW">     -2.00000000</i>
   <i name="ENCUTGWSOFT">     -2.00000000</i>
   <i name="ENCUTLF">     -1.00000000</i>
   <i type="int" name="LMAXMP2">    -1</i>
   <i name="SCISSOR">      0.00000000</i>
   <i type="int" name="NOMEGA">     0</i>
   <i type="int" name="NOMEGAR">     0</i>
   <i type="int" name="NBANDSGW">    -1</i>
   <i type="int" name="NBANDSO">    -1</i>
   <i type="int" name="NBANDSV">    -1</i>
   <i type="int" name="NELM">    40</i>
   <i type="int" name="NELMHF">     1</i>
   <i type="int" name="DIM">     3</i>
   <i type="int" name="ANTIRES">     0</i>
   <i name="OMEGAMAX">    -30.00000000</i>
   <i name="OMEGAMIN">    -30.00000000</i>
   <i name="OMEGATL">   -200.00000000</i>
   <i type="int" name="OMEGAGRID">     0</i>
   <i name="CSHIFT">     -0.10000000</i>
   <i type="logical" name="SELFENERGY"> F  </i>
   <i type="logical" name="LSPECTRAL"> F  </i>
   <i type="logical" name="LSPECTRALGW"> F  </i>
   <i type="logical" name="LSINGLES"> F  </i>
   <i type="logical" name="LFERMIGW"> F  </i>
   <i type="logical" name="ODDONLYGW"> F  </i>
   <i type="logical" name="EVENONLYGW"> F  </i>
   <i type="int" name="NKREDLFX">     1</i>
   <i type="int" name="NKREDLFY">     1</i>
   <i type="int" name="NKREDLFZ">     1</i>
   <i type="int" name="MAXMEM">  1800</i>
   <i type="int" name="TELESCOPE">     0</i>
   <i type="int" name="TAUPAR">     1</i>
   <i type="int" name="OMEGAPAR">    -1</i>
   <i name="LAMBDA">      1.00000000</i>
  </separator>
  <separator name="External order field" >
   <i name="OFIELD_KAPPA">      0.00000000</i>
   <v name="OFIELD_K">      0.00000000      0.00000000      0.00000000</v>
   <i name="OFIELD_Q6_NEAR">      0.00000000</i>
   <i name="OFIELD_Q6_FAR">      0.00000000</i>
   <i name="OFIELD_A">      0.00000000</i>
  </separator>
 </parameters>
 <atominfo>
  <atoms>     154 </atoms>
  <types>       4 </types>
  <array name="atoms" >
   <dimension dim="1">ion</dimension>
   <field type="string">element</field>
   <field type="int">atomtype</field>
   <set>
    <rc><c>Sr</c><c>   1</c></rc>
    <rc><c>Sr</c><c>   1</c></rc>
    <rc><c>Sr</c><c>   1</c></rc>
    <rc><c>Sr</c><c>   1</c></rc>
    <rc><c>Sr</c><c>   1</c></rc>
    <rc><c>Sr</c><c>   1</c></rc>
    <rc><c>Sr</c><c>   1</c></rc>
    <rc><c>Sr</c><c>   1</c></rc>
    <rc><c>Sr</c><c>   1</c></rc>
    <rc><c>Sr</c><c>   1</c></rc>
    <rc><c>Sr</c><c>   1</c></rc>
    <rc><c>Sr</c><c>   1</c></rc>
    <rc><c>Sr</c><c>   1</c></rc>
    <rc><c>Sr</c><c>   1</c></rc>
    <rc><c>Sr</c><c>   1</c></rc>
    <rc><c>Sr</c><c>   1</c></rc>
    <rc><c>Sr</c><c>   1</c></rc>
    <rc><c>Sr</c><c>   1</c></rc>
    <rc><c>Sr</c><c>   1</c></rc>
    <rc><c>Sr</c><c>   1</c></rc>
    <rc><c>Sr</c><c>   1</c></rc>
    <rc><c>Sr</c><c>   1</c></rc>
    <rc><c>Sr</c><c>   1</c></rc>
    <rc><c>Sr</c><c>   1</c></rc>
    <rc><c>Sr</c><c>   1</c></rc>
    <rc><c>Sr</c><c>   1</c></rc>
    <rc><c>Sr</c><c>   1</c></rc>
    <rc><c>Sr</c><c>   1</c></rc>
    <rc><c>Sr</c><c>   1</c></rc>
    <rc><c>Sr</c><c>   1</c></rc>
    <rc><c>Sr</c><c>   1</c></rc>
    <rc><c>Sr</c><c>   1</c></rc>
    <rc><c>Ti</c><c>   2</c></rc>
    <rc><c>Ti</c><c>   2</c></rc>
    <rc><c>Ti</c><c>   2</c></rc>
    <rc><c>Ti</c><c>   2</c></rc>
    <rc><c>Ti</c><c>   2</c></rc>
    <rc><c>Ti</c><c>   2</c></rc>
    <rc><c>Ti</c><c>   2</c></rc>
    <rc><c>Ti</c><c>   2</c></rc>
    <rc><c>Ti</c><c>   2</c></rc>
    <rc><c>Ti</c><c>   2</c></rc>
    <rc><c>Ti</c><c>   2</c></rc>
    <rc><c>Ti</c><c>   2</c></rc>
    <rc><c>Ti</c><c>   2</c></rc>
    <rc><c>Ti</c><c>   2</c></rc>
    <rc><c>Ti</c><c>   2</c></rc>
    <rc><c>Ti</c><c>   2</c></rc>
    <rc><c>Ti</c><c>   2</c></rc>
    <rc><c>Ti</c><c>   2</c></rc>
    <rc><c>Ti</c><c>   2</c></rc>
    <rc><c>Ti</c><c>   2</c></rc>
    <rc><c>Fe</c><c>   3</c></rc>
    <rc><c>Fe</c><c>   3</c></rc>
    <rc><c>Fe</c><c>   3</c></rc>
    <rc><c>Fe</c><c>   3</c></rc>
    <rc><c>Fe</c><c>   3</c></rc>
    <rc><c>Fe</c><c>   3</c></rc>
    <rc><c>Fe</c><c>   3</c></rc>
    <rc><c>Fe</c><c>   3</c></rc>
    <rc><c>Fe</c><c>   3</c></rc>
    <rc><c>Fe</c><c>   3</c></rc>
    <rc><c>Fe</c><c>   3</c></rc>
    <rc><c>Fe</c><c>   3</c></rc>
    <rc><c>O </c><c>   4</c></rc>
    <rc><c>O </c><c>   4</c></rc>
    <rc><c>O </c><c>   4</c></rc>
    <rc><c>O </c><c>   4</c></rc>
    <rc><c>O </c><c>   4</c></rc>
    <rc><c>O </c><c>   4</c></rc>
    <rc><c>O </c><c>   4</c></rc>
    <rc><c>O </c><c>   4</c></rc>
    <rc><c>O </c><c>   4</c></rc>
    <rc><c>O </c><c>   4</c></rc>
    <rc><c>O </c><c>   4</c></rc>
    <rc><c>O </c><c>   4</c></rc>
    <rc><c>O </c><c>   4</c></rc>
    <rc><c>O </c><c>   4</c></rc>
    <rc><c>O </c><c>   4</c></rc>
    <rc><c>O </c><c>   4</c></rc>
    <rc><c>O </c><c>   4</c></rc>
    <rc><c>O </c><c>   4</c></rc>
    <rc><c>O </c><c>   4</c></rc>
    <rc><c>O </c><c>   4</c></rc>
    <rc><c>O </c><c>   4</c></rc>
    <rc><c>O </c><c>   4</c></rc>
    <rc><c>O </c><c>   4</c></rc>
    <rc><c>O </c><c>   4</c></rc>
    <rc><c>O </c><c>   4</c></rc>
    <rc><c>O </c><c>   4</c></rc>
    <rc><c>O </c><c>   4</c></rc>
    <rc><c>O </c><c>   4</c></rc>
    <rc><c>O </c><c>   4</c></rc>
    <rc><c>O </c><c>   4</c></rc>
    <rc><c>O </c><c>   4</c></rc>
    <rc><c>O </c><c>   4</c></rc>
    <rc><c>O </c><c>   4</c></rc>
    <rc><c>O </c><c>   4</c></rc>
    <rc><c>O </c><c>   4</c></rc>
    <rc><c>O </c><c>   4</c></rc>
    <rc><c>O </c><c>   4</c></rc>
    <rc><c>O </c><c>   4</c></rc>
    <rc><c>O </c><c>   4</c></rc>
    <rc><c>O </c><c>   4</c></rc>
    <rc><c>O </c><c>   4</c></rc>
    <rc><c>O </c><c>   4</c></rc>
    <rc><c>O </c><c>   4</c></rc>
    <rc><c>O </c><c>   4</c></rc>
    <rc><c>O </c><c>   4</c></rc>
    <rc><c>O </c><c>   4</c></rc>
    <rc><c>O </c><c>   4</c></rc>
    <rc><c>O </c><c>   4</c></rc>
    <rc><c>O </c><c>   4</c></rc>
    <rc><c>O </c><c>   4</c></rc>
    <rc><c>O </c><c>   4</c></rc>
    <rc><c>O </c><c>   4</c></rc>
    <rc><c>O </c><c>   4</c></rc>
    <rc><c>O </c><c>   4</c></rc>
    <rc><c>O </c><c>   4</c></rc>
    <rc><c>O </c><c>   4</c></rc>
    <rc><c>O </c><c>   4</c></rc>
    <rc><c>O </c><c>   4</c></rc>
    <rc><c>O </c><c>   4</c></rc>
    <rc><c>O </c><c>   4</c></rc>
    <rc><c>O </c><c>   4</c></rc>
    <rc><c>O </c><c>   4</c></rc>
    <rc><c>O </c><c>   4</c></rc>
    <rc><c>O </c><c>   4</c></rc>
    <rc><c>O </c><c>   4</c></rc>
    <rc><c>O </c><c>   4</c></rc>
    <rc><c>O </c><c>   4</c></rc>
    <rc><c>O </c><c>   4</c></rc>
    <rc><c>O </c><c>   4</c></rc>
    <rc><c>O </c><c>   4</c></rc>
    <rc><c>O </c><c>   4</c></rc>
    <rc><c>O </c><c>   4</c></rc>
    <rc><c>O </c><c>   4</c></rc>
    <rc><c>O </c><c>   4</c></rc>
    <rc><c>O </c><c>   4</c></rc>
    <rc><c>O </c><c>   4</c></rc>
    <rc><c>O </c><c>   4</c></rc>
    <rc><c>O </c><c>   4</c></rc>
    <rc><c>O </c><c>   4</c></rc>
    <rc><c>O </c><c>   4</c></rc>
    <rc><c>O </c><c>   4</c></rc>
    <rc><c>O </c><c>   4</c></rc>
    <rc><c>O </c><c>   4</c></rc>
    <rc><c>O </c><c>   4</c></rc>
    <rc><c>O </c><c>   4</c></rc>
    <rc><c>O </c><c>   4</c></rc>
    <rc><c>O </c><c>   4</c></rc>
    <rc><c>O </c><c>   4</c></rc>
    <rc><c>O </c><c>   4</c></rc>
    <rc><c>O </c><c>   4</c></rc>
   </set>
  </array>
  <array name="atomtypes" >
   <dimension dim="1">type</dimension>
   <field type="int">atomspertype</field>
   <field type="string">element</field>
   <field>mass</field>
   <field>valence</field>
   <field type="string">pseudopotential</field>
   <set>
    <rc><c>  32</c><c>Sr</c><c>     87.62000000</c><c>     10.00000000</c><c>  PAW_PBE Sr_sv 07Sep2000               </c></rc>
    <rc><c>  20</c><c>Ti</c><c>     47.88000000</c><c>      4.00000000</c><c>  PAW_PBE Ti 08Apr2002                  </c></rc>
    <rc><c>  12</c><c>Fe</c><c>     55.84700000</c><c>      8.00000000</c><c>  PAW_PBE Fe 06Sep2000                  </c></rc>
    <rc><c>  90</c><c>O </c><c>     16.00000000</c><c>      6.00000000</c><c>  PAW_PBE O 08Apr2002                   </c></rc>
   </set>
  </array>
 </atominfo>
 <structure name="initialpos" >
  <crystal>
   <varray name="basis" >
    <v>      11.26504165       0.01564892       0.00021780 </v>
    <v>       0.01536501      11.26291100      -0.00117980 </v>
    <v>       0.00027129      -0.00165392      15.81971940 </v>
   </varray>
   <i name="volume">   2007.15726697 </i>
   <varray name="rec_basis" >
    <v>       0.08877037      -0.00012110      -0.00000153 </v>
    <v>      -0.00012334       0.08878716       0.00000928 </v>
    <v>      -0.00000123       0.00000662       0.06321225 </v>
   </varray>
  </crystal>
  <varray name="positions" >
   <v>       0.00074083       0.25506702       0.11521366 </v>
   <v>       0.00257702       0.25191820       0.62624149 </v>
   <v>       0.99551431       0.74289045       0.11724908 </v>
   <v>       0.00323085       0.74301472       0.62503627 </v>
   <v>       0.49919451       0.25644749       0.11291005 </v>
   <v>       0.49474178       0.23732455       0.62777992 </v>
   <v>       0.49818152       0.74063645       0.11899802 </v>
   <v>       0.49798200       0.76031530       0.61662384 </v>
   <v>       0.00149978       0.25506448       0.38317414 </v>
   <v>       0.00241848       0.25252216       0.87629995 </v>
   <v>       0.99544776       0.74264689       0.38114300 </v>
   <v>       0.00251752       0.74338419       0.87736141 </v>
   <v>       0.50089179       0.25658449       0.38464246 </v>
   <v>       0.49559207       0.23623126       0.87621594 </v>
   <v>       0.49811964       0.74098166       0.37793477 </v>
   <v>       0.49702729       0.75958150       0.88564656 </v>
   <v>       0.25534119       0.99948328       0.11385940 </v>
   <v>       0.25044989       0.00332842       0.62590023 </v>
   <v>       0.24735167       0.50899699       0.11637204 </v>
   <v>       0.23961946       0.49415192       0.62314791 </v>
   <v>       0.74641116       0.99401641       0.11548400 </v>
   <v>       0.74781058       0.99958108       0.62718644 </v>
   <v>       0.74838636       0.50997275       0.11882753 </v>
   <v>       0.76002505       0.49737308       0.62206976 </v>
   <v>       0.25027872       0.99782387       0.38479338 </v>
   <v>       0.25198861       0.00341349       0.87684645 </v>
   <v>       0.24586508       0.50981402       0.38160418 </v>
   <v>       0.24422387       0.49557585       0.87942185 </v>
   <v>       0.75262940       0.99230468       0.38194997 </v>
   <v>       0.74600828       0.99938254       0.87580678 </v>
   <v>       0.75033235       0.51102104       0.37881866 </v>
   <v>       0.75537523       0.49866420       0.87987147 </v>
   <v>       0.74679279       0.74824769       0.99707369 </v>
   <v>       0.24770917       0.74822900       0.50195639 </v>
   <v>       0.49881780       0.50193129       0.50321260 </v>
   <v>       0.99921505       0.99982514       0.00011763 </v>
   <v>       0.49978608       0.00198876       0.49696693 </v>
   <v>       0.74741890       0.24871792       0.00090350 </v>
   <v>       0.75039559       0.24821538       0.49968520 </v>
   <v>       0.75268210       0.24770425       0.75086750 </v>
   <v>       0.00090243       0.49695657       0.75071387 </v>
   <v>       0.24989283       0.24995308       0.99934172 </v>
   <v>       0.25013277       0.74948318       0.24938679 </v>
   <v>       0.00115903       0.00372019       0.75102183 </v>
   <v>       0.00001048       0.99999788       0.50108954 </v>
   <v>       0.24830950       0.24952983       0.50072322 </v>
   <v>       0.75077317       0.74921402       0.24941774 </v>
   <v>       0.00245591       0.50617829       0.24961996 </v>
   <v>       0.75018314       0.74802882       0.50256384 </v>
   <v>       0.49868960       0.99226489       0.75164417 </v>
   <v>       0.25001068       0.74858528       0.99784369 </v>
   <v>       0.50138558       0.50289092       0.24841692 </v>
   <v>       0.24093691       0.76457507       0.75017004 </v>
   <v>       0.25914720       0.28337027       0.24996312 </v>
   <v>       0.01350091       0.96859316       0.24957566 </v>
   <v>       0.49927459       0.00184973       0.00210813 </v>
   <v>       0.49859815       0.50220573       0.99703103 </v>
   <v>       0.99870489       0.49900065       0.49889761 </v>
   <v>       0.50229182       0.47180499       0.74902337 </v>
   <v>       0.99844695       0.49953823       0.00090686 </v>
   <v>       0.75761108       0.28169766       0.24987011 </v>
   <v>       0.24608177       0.24724146       0.75085362 </v>
   <v>       0.76547519       0.76084367       0.74997115 </v>
   <v>       0.50400094       0.97148558       0.25108588 </v>
   <v>       0.99787952       0.00945261       0.13544184 </v>
   <v>       0.99885218       0.00199126       0.62308332 </v>
   <v>       0.00084654       0.50756535       0.12695865 </v>
   <v>       0.99666099       0.49118697       0.62405222 </v>
   <v>       0.48983086       0.03544672       0.14297688 </v>
   <v>       0.50042472       0.99800924       0.62182900 </v>
   <v>       0.50110901       0.50126190       0.12617838 </v>
   <v>       0.49185257       0.52772961       0.63448808 </v>
   <v>       0.00101171       0.00952553       0.36498835 </v>
   <v>       0.99857101       0.00074259       0.87657264 </v>
   <v>       0.00061887       0.50807257       0.37366294 </v>
   <v>       0.99636733       0.49254945       0.87507529 </v>
   <v>       0.49126003       0.02693921       0.36446653 </v>
   <v>       0.50027285       0.99792470       0.87477125 </v>
   <v>       0.50095624       0.50035686       0.37749344 </v>
   <v>       0.49177888       0.53671549       0.85770753 </v>
   <v>       0.24494479       0.22593473       0.36235801 </v>
   <v>       0.24674851       0.24788984       0.87749790 </v>
   <v>       0.24571305       0.75068652       0.37485273 </v>
   <v>       0.25449530       0.74700694       0.87303486 </v>
   <v>       0.73892286       0.22150162       0.36125936 </v>
   <v>       0.75556900       0.24779658       0.87607239 </v>
   <v>       0.75113193       0.74495218       0.37592009 </v>
   <v>       0.73808554       0.74945834       0.87266233 </v>
   <v>       0.24337619       0.22703599       0.13810576 </v>
   <v>       0.24685746       0.24875677       0.62174551 </v>
   <v>       0.24573163       0.74904821       0.12601677 </v>
   <v>       0.25645272       0.74691163       0.62601074 </v>
   <v>       0.73980145       0.22424336       0.13798082 </v>
   <v>       0.75631076       0.24714144       0.62240279 </v>
   <v>       0.75174145       0.74567698       0.12548412 </v>
   <v>       0.73611461       0.74739876       0.62631034 </v>
   <v>       0.15246321       0.41050808       0.25064693 </v>
   <v>       0.41418866       0.34509579       0.25084963 </v>
   <v>       0.65111083       0.40771136       0.25151065 </v>
   <v>       0.91238731       0.34520608       0.25041589 </v>
   <v>       0.10034265       0.65806669       0.25042689 </v>
   <v>       0.35270873       0.60280587       0.25135548 </v>
   <v>       0.60348261       0.64864341       0.25087922 </v>
   <v>       0.85427447       0.60430149       0.25007773 </v>
   <v>       0.17341544       0.92378364       0.24909075 </v>
   <v>       0.39918795       0.84353378       0.25014997 </v>
   <v>       0.65505158       0.90233941       0.25063095 </v>
   <v>       0.88744490       0.85724711       0.25205099 </v>
   <v>       0.13470897       0.11323206       0.49911467 </v>
   <v>       0.38575918       0.13718791       0.50026148 </v>
   <v>       0.63544119       0.11322655       0.50051874 </v>
   <v>       0.88565371       0.13394381       0.49504052 </v>
   <v>       0.11842245       0.36351441       0.49367757 </v>
   <v>       0.36441322       0.38540941       0.49871384 </v>
   <v>       0.61233911       0.36396722       0.50558073 </v>
   <v>       0.86016197       0.37921088       0.48768162 </v>
   <v>       0.13470650       0.61723755       0.50332483 </v>
   <v>       0.38375856       0.63548497       0.49645730 </v>
   <v>       0.63253803       0.61438439       0.50039373 </v>
   <v>       0.88128373       0.63517307       0.50435536 </v>
   <v>       0.11369634       0.86585474       0.49882188 </v>
   <v>       0.36664395       0.88586398       0.49705046 </v>
   <v>       0.61275640       0.86757683       0.48950594 </v>
   <v>       0.86424932       0.88490817       0.50013711 </v>
   <v>       0.10585269       0.14055253       0.74983256 </v>
   <v>       0.36136402       0.10332014       0.74873239 </v>
   <v>       0.61263957       0.13778089       0.74910701 </v>
   <v>       0.85799131       0.10594690       0.74979270 </v>
   <v>       0.13861918       0.38933124       0.74995588 </v>
   <v>       0.38677148       0.35526702       0.74958202 </v>
   <v>       0.64893551       0.39164317       0.74851899 </v>
   <v>       0.89118787       0.35458118       0.74953401 </v>
   <v>       0.11870732       0.63397811       0.74874969 </v>
   <v>       0.85537944       0.60760566       0.74945390 </v>
   <v>       0.14294036       0.89929135       0.74952778 </v>
   <v>       0.39790617       0.84582713       0.74907887 </v>
   <v>       0.63915666       0.88507629       0.74838506 </v>
   <v>       0.90021093       0.85857404       0.74867071 </v>
   <v>       0.13132907       0.11505096       0.00131576 </v>
   <v>       0.38118227       0.13397540       0.99984118 </v>
   <v>       0.63344913       0.11666754       0.99851706 </v>
   <v>       0.88353011       0.13233675       0.00408995 </v>
   <v>       0.11893706       0.36534948       0.00565457 </v>
   <v>       0.36534747       0.38221739       0.00145138 </v>
   <v>       0.61565161       0.36598787       0.99443151 </v>
   <v>       0.86250092       0.37832361       0.01126092 </v>
   <v>       0.13178261       0.61925757       0.99695533 </v>
   <v>       0.37955130       0.63268091       0.00311771 </v>
   <v>       0.63111353       0.61782217       0.99978353 </v>
   <v>       0.87924069       0.63376096       0.99623768 </v>
   <v>       0.11457311       0.86747643       0.00188196 </v>
   <v>       0.36733222       0.88220447       0.00292036 </v>
   <v>       0.61543226       0.86894128       0.01061884 </v>
   <v>       0.86593558       0.88345994       0.00036503 </v>
  </varray>
 </structure>
 <calculation>
  <scstep>
   <time name="dav">  301.98  302.01</time>
   <time name="total">  305.72  305.82</time>
   <energy>
    <i name="alphaZ">   5616.90396526 </i>
    <i name="ewald"> -61614.04706537 </i>
    <i name="hartreedc"> -16939.35642044 </i>
    <i name="XCdc">   3073.42658908 </i>
    <i name="pawpsdc"> 114263.67568660 </i>
    <i name="pawaedc">-113314.44080941 </i>
    <i name="eentropy">     -0.00000000 </i>
    <i name="bandstr">  -7091.55323943 </i>
    <i name="atom">  74916.81196153 </i>
    <i name="e_fr_energy">  -1088.57933219 </i>
    <i name="e_wo_entrp">  -1088.57933219 </i>
    <i name="e_0_energy">  -1088.57933219 </i>
   </energy>
  </scstep>
  <scstep>
   <time name="diag">   33.23   33.26</time>
   <time name="diis">   32.04   32.05</time>
   <time name="orth">   19.03   19.03</time>
   <time name="total">   88.03   88.13</time>
   <energy>
    <i name="e_fr_energy">  -1088.57933926 </i>
    <i name="e_wo_entrp">  -1088.57933926 </i>
    <i name="e_0_energy">  -1088.57933926 </i>
   </energy>
  </scstep>
  <scstep>
   <time name="diag">   33.27   33.27</time>
   <time name="diis">   31.68   31.68</time>
   <time name="orth">   19.01   19.01</time>
   <time name="total">   87.67   87.72</time>
   <energy>
    <i name="e_fr_energy">  -1088.57934178 </i>
    <i name="e_wo_entrp">  -1088.57934178 </i>
    <i name="e_0_energy">  -1088.57934178 </i>
   </energy>
  </scstep>
  <scstep>
   <time name="diag">   33.23   33.24</time>
   <time name="diis">   31.39   31.40</time>
   <time name="orth">   18.97   18.97</time>
   <time name="total">   87.31   87.39</time>
   <energy>
    <i name="e_fr_energy">  -1088.57934710 </i>
    <i name="e_wo_entrp">  -1088.57934710 </i>
    <i name="e_0_energy">  -1088.57934710 </i>
   </energy>
  </scstep>
  <scstep>
   <time name="diag">   33.26   33.27</time>
   <time name="diis">   31.11   31.11</time>
   <time name="orth">   18.95   18.95</time>
   <time name="total">   87.04   87.13</time>
   <energy>
    <i name="e_fr_energy">  -1088.57935085 </i>
    <i name="e_wo_entrp">  -1088.57935085 </i>
    <i name="e_0_energy">  -1088.57935085 </i>
   </energy>
  </scstep>
  <scstep>
   <time name="diag">   33.26   33.27</time>
   <time name="diis">   29.29   29.29</time>
   <time name="orth">   18.95   18.97</time>
   <time name="total">   85.23   85.37</time>
   <energy>
    <i name="e_fr_energy">  -1088.57935325 </i>
    <i name="e_wo_entrp">  -1088.57935325 </i>
    <i name="e_0_energy">  -1088.57935325 </i>
   </energy>
  </scstep>
  <scstep>
   <time name="diag">   33.26   33.29</time>
   <time name="diis">   28.08   28.10</time>
   <time name="orth">   18.98   18.98</time>
   <time name="total">   84.03   84.13</time>
   <energy>
    <i name="e_fr_energy">  -1088.57935462 </i>
    <i name="e_wo_entrp">  -1088.57935462 </i>
    <i name="e_0_energy">  -1088.57935462 </i>
   </energy>
  </scstep>
  <scstep>
   <time name="diag">   33.27   33.27</time>
   <time name="diis">   27.06   27.07</time>
   <time name="orth">   18.97   18.97</time>
   <time name="total">   80.02   80.10</time>
   <energy>
    <i name="alphaZ">   5616.90396526 </i>
    <i name="ewald"> -61614.04706537 </i>
    <i name="hartreedc"> -16939.37033344 </i>
    <i name="XCdc">   3073.42494626 </i>
    <i name="pawpsdc"> 114259.28657723 </i>
    <i name="pawaedc">-113310.01640714 </i>
    <i name="eentropy">     -0.00000000 </i>
    <i name="bandstr">  -7091.57300032 </i>
    <i name="atom">  74916.81196153 </i>
    <i name="e_fr_energy">  -1088.57935599 </i>
    <i name="e_wo_entrp">  -1088.57935599 </i>
    <i name="e_0_energy">  -1088.57935599 </i>
   </energy>
  </scstep>
  <structure>
   <crystal>
    <varray name="basis" >
     <v>      11.26504165       0.01564892       0.00021780 </v>
     <v>       0.01536501      11.26291100      -0.00117980 </v>
     <v>       0.00027129      -0.00165392      15.81971940 </v>
    </varray>
    <i name="volume">   2007.15726697 </i>
    <varray name="rec_basis" >
     <v>       0.08877037      -0.00012110      -0.00000153 </v>
     <v>      -0.00012334       0.08878716       0.00000928 </v>
     <v>      -0.00000123       0.00000662       0.06321225 </v>
    </varray>
   </crystal>
   <varray name="positions" >
    <v>       0.00074083       0.25506702       0.11521366 </v>
    <v>       0.00257702       0.25191820       0.62624149 </v>
    <v>       0.99551431       0.74289045       0.11724908 </v>
    <v>       0.00323085       0.74301472       0.62503627 </v>
    <v>       0.49919451       0.25644749       0.11291005 </v>
    <v>       0.49474178       0.23732455       0.62777992 </v>
    <v>       0.49818152       0.74063645       0.11899802 </v>
    <v>       0.49798200       0.76031530       0.61662384 </v>
    <v>       0.00149978       0.25506448       0.38317414 </v>
    <v>       0.00241848       0.25252216       0.87629995 </v>
    <v>       0.99544776       0.74264689       0.38114300 </v>
    <v>       0.00251752       0.74338419       0.87736141 </v>
    <v>       0.50089179       0.25658449       0.38464246 </v>
    <v>       0.49559207       0.23623126       0.87621594 </v>
    <v>       0.49811964       0.74098166       0.37793477 </v>
    <v>       0.49702729       0.75958150       0.88564656 </v>
    <v>       0.25534119       0.99948328       0.11385940 </v>
    <v>       0.25044989       0.00332842       0.62590023 </v>
    <v>       0.24735167       0.50899699       0.11637204 </v>
    <v>       0.23961946       0.49415192       0.62314791 </v>
    <v>       0.74641116       0.99401641       0.11548400 </v>
    <v>       0.74781058       0.99958108       0.62718644 </v>
    <v>       0.74838636       0.50997275       0.11882753 </v>
    <v>       0.76002505       0.49737308       0.62206976 </v>
    <v>       0.25027872       0.99782387       0.38479338 </v>
    <v>       0.25198861       0.00341349       0.87684645 </v>
    <v>       0.24586508       0.50981402       0.38160418 </v>
    <v>       0.24422387       0.49557585       0.87942185 </v>
    <v>       0.75262940       0.99230468       0.38194997 </v>
    <v>       0.74600828       0.99938254       0.87580678 </v>
    <v>       0.75033235       0.51102104       0.37881866 </v>
    <v>       0.75537523       0.49866420       0.87987147 </v>
    <v>       0.74679279       0.74824769       0.99707369 </v>
    <v>       0.24770917       0.74822900       0.50195639 </v>
    <v>       0.49881780       0.50193129       0.50321260 </v>
    <v>       0.99921505       0.99982514       0.00011763 </v>
    <v>       0.49978608       0.00198876       0.49696693 </v>
    <v>       0.74741890       0.24871792       0.00090350 </v>
    <v>       0.75039559       0.24821538       0.49968520 </v>
    <v>       0.75268210       0.24770425       0.75086750 </v>
    <v>       0.00090243       0.49695657       0.75071387 </v>
    <v>       0.24989283       0.24995308       0.99934172 </v>
    <v>       0.25013277       0.74948318       0.24938679 </v>
    <v>       0.00115903       0.00372019       0.75102183 </v>
    <v>       0.00001048       0.99999788       0.50108954 </v>
    <v>       0.24830950       0.24952983       0.50072322 </v>
    <v>       0.75077317       0.74921402       0.24941774 </v>
    <v>       0.00245591       0.50617829       0.24961996 </v>
    <v>       0.75018314       0.74802882       0.50256384 </v>
    <v>       0.49868960       0.99226489       0.75164417 </v>
    <v>       0.25001068       0.74858528       0.99784369 </v>
    <v>       0.50138558       0.50289092       0.24841692 </v>
    <v>       0.24093691       0.76457507       0.75017004 </v>
    <v>       0.25914720       0.28337027       0.24996312 </v>
    <v>       0.01350091       0.96859316       0.24957566 </v>
    <v>       0.49927459       0.00184973       0.00210813 </v>
    <v>       0.49859815       0.50220573       0.99703103 </v>
    <v>       0.99870489       0.49900065       0.49889761 </v>
    <v>       0.50229182       0.47180499       0.74902337 </v>
    <v>       0.99844695       0.49953823       0.00090686 </v>
    <v>       0.75761108       0.28169766       0.24987011 </v>
    <v>       0.24608177       0.24724146       0.75085362 </v>
    <v>       0.76547519       0.76084367       0.74997115 </v>
    <v>       0.50400094       0.97148558       0.25108588 </v>
    <v>       0.99787952       0.00945261       0.13544184 </v>
    <v>       0.99885218       0.00199126       0.62308332 </v>
    <v>       0.00084654       0.50756535       0.12695865 </v>
    <v>       0.99666099       0.49118697       0.62405222 </v>
    <v>       0.48983086       0.03544672       0.14297688 </v>
    <v>       0.50042472       0.99800924       0.62182900 </v>
    <v>       0.50110901       0.50126190       0.12617838 </v>
    <v>       0.49185257       0.52772961       0.63448808 </v>
    <v>       0.00101171       0.00952553       0.36498835 </v>
    <v>       0.99857101       0.00074259       0.87657264 </v>
    <v>       0.00061887       0.50807257       0.37366294 </v>
    <v>       0.99636733       0.49254945       0.87507529 </v>
    <v>       0.49126003       0.02693921       0.36446653 </v>
    <v>       0.50027285       0.99792470       0.87477125 </v>
    <v>       0.50095624       0.50035686       0.37749344 </v>
    <v>       0.49177888       0.53671549       0.85770753 </v>
    <v>       0.24494479       0.22593473       0.36235801 </v>
    <v>       0.24674851       0.24788984       0.87749790 </v>
    <v>       0.24571305       0.75068652       0.37485273 </v>
    <v>       0.25449530       0.74700694       0.87303486 </v>
    <v>       0.73892286       0.22150162       0.36125936 </v>
    <v>       0.75556900       0.24779658       0.87607239 </v>
    <v>       0.75113193       0.74495218       0.37592009 </v>
    <v>       0.73808554       0.74945834       0.87266233 </v>
    <v>       0.24337619       0.22703599       0.13810576 </v>
    <v>       0.24685746       0.24875677       0.62174551 </v>
    <v>       0.24573163       0.74904821       0.12601677 </v>
    <v>       0.25645272       0.74691163       0.62601074 </v>
    <v>       0.73980145       0.22424336       0.13798082 </v>
    <v>       0.75631076       0.24714144       0.62240279 </v>
    <v>       0.75174145       0.74567698       0.12548412 </v>
    <v>       0.73611461       0.74739876       0.62631034 </v>
    <v>       0.15246321       0.41050808       0.25064693 </v>
    <v>       0.41418866       0.34509579       0.25084963 </v>
    <v>       0.65111083       0.40771136       0.25151065 </v>
    <v>       0.91238731       0.34520608       0.25041589 </v>
    <v>       0.10034265       0.65806669       0.25042689 </v>
    <v>       0.35270873       0.60280587       0.25135548 </v>
    <v>       0.60348261       0.64864341       0.25087922 </v>
    <v>       0.85427447       0.60430149       0.25007773 </v>
    <v>       0.17341544       0.92378364       0.24909075 </v>
    <v>       0.39918795       0.84353378       0.25014997 </v>
    <v>       0.65505158       0.90233941       0.25063095 </v>
    <v>       0.88744490       0.85724711       0.25205099 </v>
    <v>       0.13470897       0.11323206       0.49911467 </v>
    <v>       0.38575918       0.13718791       0.50026148 </v>
    <v>       0.63544119       0.11322655       0.50051874 </v>
    <v>       0.88565371       0.13394381       0.49504052 </v>
    <v>       0.11842245       0.36351441       0.49367757 </v>
    <v>       0.36441322       0.38540941       0.49871384 </v>
    <v>       0.61233911       0.36396722       0.50558073 </v>
    <v>       0.86016197       0.37921088       0.48768162 </v>
    <v>       0.13470650       0.61723755       0.50332483 </v>
    <v>       0.38375856       0.63548497       0.49645730 </v>
    <v>       0.63253803       0.61438439       0.50039373 </v>
    <v>       0.88128373       0.63517307       0.50435536 </v>
    <v>       0.11369634       0.86585474       0.49882188 </v>
    <v>       0.36664395       0.88586398       0.49705046 </v>
    <v>       0.61275640       0.86757683       0.48950594 </v>
    <v>       0.86424932       0.88490817       0.50013711 </v>
    <v>       0.10585269       0.14055253       0.74983256 </v>
    <v>       0.36136402       0.10332014       0.74873239 </v>
    <v>       0.61263957       0.13778089       0.74910701 </v>
    <v>       0.85799131       0.10594690       0.74979270 </v>
    <v>       0.13861918       0.38933124       0.74995588 </v>
    <v>       0.38677148       0.35526702       0.74958202 </v>
    <v>       0.64893551       0.39164317       0.74851899 </v>
    <v>       0.89118787       0.35458118       0.74953401 </v>
    <v>       0.11870732       0.63397811       0.74874969 </v>
    <v>       0.85537944       0.60760566       0.74945390 </v>
    <v>       0.14294036       0.89929135       0.74952778 </v>
    <v>       0.39790617       0.84582713       0.74907887 </v>
    <v>       0.63915666       0.88507629       0.74838506 </v>
    <v>       0.90021093       0.85857404       0.74867071 </v>
    <v>       0.13132907       0.11505096       0.00131576 </v>
    <v>       0.38118227       0.13397540       0.99984118 </v>
    <v>       0.63344913       0.11666754       0.99851706 </v>
    <v>       0.88353011       0.13233675       0.00408995 </v>
    <v>       0.11893706       0.36534948       0.00565457 </v>
    <v>       0.36534747       0.38221739       0.00145138 </v>
    <v>       0.61565161       0.36598787       0.99443151 </v>
    <v>       0.86250092       0.37832361       0.01126092 </v>
    <v>       0.13178261       0.61925757       0.99695533 </v>
    <v>       0.37955130       0.63268091       0.00311771 </v>
    <v>       0.63111353       0.61782217       0.99978353 </v>
    <v>       0.87924069       0.63376096       0.99623768 </v>
    <v>       0.11457311       0.86747643       0.00188196 </v>
    <v>       0.36733222       0.88220447       0.00292036 </v>
    <v>       0.61543226       0.86894128       0.01061884 </v>
    <v>       0.86593558       0.88345994       0.00036503 </v>
   </varray>
  </structure>
  <varray name="forces" >
   <v>       0.00318618       0.01942719       0.00151581 </v>
   <v>       0.00364171      -0.02447721       0.00961562 </v>
   <v>       0.01742613       0.00732135       0.01893445 </v>
   <v>      -0.00662654       0.01752618       0.02698139 </v>
   <v>      -0.02129712       0.00590904       0.00450068 </v>
   <v>       0.00234194      -0.00470956      -0.00007828 </v>
   <v>      -0.00340578       0.00012008       0.00821181 </v>
   <v>       0.00285637      -0.03150077       0.03214066 </v>
   <v>       0.00560869       0.00837015      -0.01473631 </v>
   <v>       0.00046519      -0.01508177      -0.00790867 </v>
   <v>       0.01849458       0.00537639      -0.02514738 </v>
   <v>      -0.01444870       0.00791428      -0.02393239 </v>
   <v>      -0.01306807      -0.00033798      -0.01708166 </v>
   <v>      -0.00782459       0.01285568       0.01329378 </v>
   <v>       0.00052518      -0.00975599      -0.02542017 </v>
   <v>      -0.00723166      -0.01023402      -0.02300358 </v>
   <v>      -0.02049067      -0.01755410      -0.00998750 </v>
   <v>      -0.00807130       0.00841784       0.01049147 </v>
   <v>       0.01172138       0.01315132       0.00823366 </v>
   <v>       0.00577597      -0.00195257       0.01518047 </v>
   <v>      -0.01072508      -0.00679525       0.01655714 </v>
   <v>      -0.00424569       0.01108938       0.01928364 </v>
   <v>      -0.00872870       0.00729542      -0.00770551 </v>
   <v>      -0.01154248       0.00041925       0.01476258 </v>
   <v>      -0.00311241      -0.00436537      -0.02631742 </v>
   <v>      -0.01711543       0.00606757       0.01110251 </v>
   <v>       0.02029289      -0.00003613      -0.01622526 </v>
   <v>      -0.00822579      -0.00311600      -0.00775936 </v>
   <v>      -0.01842074       0.00703380      -0.02151719 </v>
   <v>      -0.01792536       0.00469055      -0.00595939 </v>
   <v>      -0.01414597       0.00918815      -0.01802810 </v>
   <v>      -0.00487753       0.00338131      -0.01459737 </v>
   <v>      -0.02899814      -0.01620738      -0.03552511 </v>
   <v>       0.04219444      -0.00202558       0.04492668 </v>
   <v>       0.00643346       0.02187554       0.01229439 </v>
   <v>       0.07846695      -0.01701888      -0.04943062 </v>
   <v>      -0.00476174      -0.01046171       0.01857451 </v>
   <v>      -0.04188971       0.01702163      -0.03300850 </v>
   <v>      -0.05785075      -0.02088683       0.04146602 </v>
   <v>      -0.02826351      -0.02794595       0.02085751 </v>
   <v>      -0.01326449       0.06512331       0.03114815 </v>
   <v>       0.02772591      -0.05157351       0.02201922 </v>
   <v>       0.03203406       0.05191009      -0.04996123 </v>
   <v>       0.02456356      -0.01538513       0.04291652 </v>
   <v>      -0.01394901      -0.01088258       0.05419273 </v>
   <v>       0.02932397      -0.00177809       0.00081801 </v>
   <v>       0.01196445      -0.00334598      -0.04167328 </v>
   <v>      -0.01877111      -0.01258015      -0.05012975 </v>
   <v>      -0.03681573      -0.00152113       0.05280761 </v>
   <v>       0.01380591      -0.01140759       0.00935101 </v>
   <v>       0.00701271       0.03471123      -0.01948504 </v>
   <v>       0.00520134      -0.01615840      -0.02657778 </v>
   <v>      -0.00943074       0.01943926       0.02955611 </v>
   <v>       0.02168616      -0.00615890      -0.01770701 </v>
   <v>       0.02479496      -0.03639661      -0.03634101 </v>
   <v>      -0.02454311       0.00676707       0.00884018 </v>
   <v>      -0.00497338       0.01103373      -0.00908114 </v>
   <v>       0.00226253       0.02232954       0.02944718 </v>
   <v>       0.00233543      -0.00954055      -0.01672811 </v>
   <v>      -0.01199280       0.01212000      -0.02115559 </v>
   <v>      -0.00129822      -0.01001095      -0.01970355 </v>
   <v>       0.02952835      -0.01732904       0.01404589 </v>
   <v>       0.01191570      -0.00445512       0.01958700 </v>
   <v>      -0.00326008      -0.00010358      -0.01971332 </v>
   <v>      -0.00141371      -0.01068452       0.04725430 </v>
   <v>      -0.00808372       0.02201291      -0.06657250 </v>
   <v>       0.00354471      -0.02361027       0.00724212 </v>
   <v>      -0.00200453       0.03750185      -0.02550901 </v>
   <v>       0.02950441      -0.00773694      -0.01202876 </v>
   <v>       0.00068593       0.00731909      -0.06040287 </v>
   <v>      -0.01041239       0.01002590       0.04271314 </v>
   <v>      -0.00732391       0.01252116       0.00366811 </v>
   <v>       0.00958680      -0.01138419       0.00840433 </v>
   <v>      -0.01604995       0.02065415      -0.00786328 </v>
   <v>       0.00019554      -0.03074504       0.04009391 </v>
   <v>       0.00246905       0.04227868      -0.00658110 </v>
   <v>       0.01472874       0.03388899       0.04468110 </v>
   <v>       0.00188883       0.00977113      -0.01016504 </v>
   <v>      -0.00003619       0.00777880       0.00400755 </v>
   <v>      -0.00364225      -0.00838747       0.00938179 </v>
   <v>       0.00979634      -0.02306973       0.02520246 </v>
   <v>      -0.00261696      -0.01565044      -0.02038996 </v>
   <v>      -0.00454027      -0.00419664       0.02145733 </v>
   <v>       0.01377275      -0.02559562      -0.01477094 </v>
   <v>      -0.00144081      -0.01167255       0.04032590 </v>
   <v>       0.00902331      -0.01451591      -0.01530388 </v>
   <v>      -0.00636490      -0.00192594       0.03033962 </v>
   <v>      -0.00490567      -0.02548170       0.01435751 </v>
   <v>       0.00689529       0.00717629       0.01472246 </v>
   <v>       0.00916864      -0.01564654      -0.00609717 </v>
   <v>      -0.00154019      -0.00950381       0.04457873 </v>
   <v>       0.01227143      -0.03644347      -0.01700158 </v>
   <v>       0.01155006       0.00407890       0.00035736 </v>
   <v>       0.01301865      -0.01556781      -0.03236867 </v>
   <v>      -0.00883662      -0.00548683       0.02214684 </v>
   <v>       0.00114077      -0.03256478      -0.04691640 </v>
   <v>      -0.02339009       0.00284280       0.00700430 </v>
   <v>       0.00422683      -0.01946766       0.00111647 </v>
   <v>       0.04011310       0.03313411      -0.00585294 </v>
   <v>       0.04633539       0.02136848      -0.00273297 </v>
   <v>       0.01588918      -0.00788408       0.01441061 </v>
   <v>      -0.00930904      -0.00867024       0.01166408 </v>
   <v>      -0.00471413       0.02713526       0.00082409 </v>
   <v>      -0.01467801       0.01448049       0.01127439 </v>
   <v>       0.00565008       0.02188647       0.02521768 </v>
   <v>      -0.02717907      -0.01438408       0.00117060 </v>
   <v>       0.01811582       0.00875857       0.00055507 </v>
   <v>      -0.01952501      -0.00839210       0.00951045 </v>
   <v>      -0.04352320      -0.00579786      -0.00850959 </v>
   <v>      -0.03630160      -0.01033714      -0.01289233 </v>
   <v>      -0.02458148       0.02546463      -0.01932526 </v>
   <v>       0.00256963      -0.04158857      -0.03623058 </v>
   <v>      -0.00879965       0.02964301       0.02764916 </v>
   <v>      -0.00312787      -0.03674346       0.00150236 </v>
   <v>       0.02306954      -0.00900283      -0.01968482 </v>
   <v>       0.04598867       0.02515468       0.03745440 </v>
   <v>      -0.03201789      -0.00830282       0.00142554 </v>
   <v>      -0.01906893      -0.00701385       0.01680596 </v>
   <v>       0.00846108       0.00924431       0.01486773 </v>
   <v>      -0.01230258      -0.02117976      -0.02166321 </v>
   <v>      -0.01198484       0.03941343       0.01077860 </v>
   <v>       0.02885605       0.01183904      -0.00070022 </v>
   <v>       0.02136761      -0.00095034       0.03971505 </v>
   <v>       0.02695748      -0.00608324      -0.00106132 </v>
   <v>      -0.01362958       0.02282171      -0.01176188 </v>
   <v>      -0.02759337      -0.01712256      -0.00263639 </v>
   <v>      -0.01340864       0.00908143      -0.00100813 </v>
   <v>      -0.02049219      -0.01381174       0.00046074 </v>
   <v>      -0.00324386      -0.02585315      -0.00194818 </v>
   <v>       0.03168723       0.00435801       0.00227598 </v>
   <v>       0.00777867       0.03832970      -0.00239944 </v>
   <v>       0.00339071       0.00253616      -0.00565560 </v>
   <v>       0.01120915      -0.00808729      -0.00341902 </v>
   <v>       0.00334515       0.00101636      -0.00820388 </v>
   <v>      -0.00911049       0.01265717      -0.01840893 </v>
   <v>       0.01443269      -0.01245140       0.00458392 </v>
   <v>       0.00915846       0.01008073       0.00975421 </v>
   <v>       0.01162493       0.00563470      -0.00867355 </v>
   <v>      -0.03336525       0.01060170       0.01096118 </v>
   <v>      -0.02244382       0.00717824      -0.00203883 </v>
   <v>       0.00539775       0.02460491       0.02076492 </v>
   <v>      -0.01163185      -0.02770080       0.01274205 </v>
   <v>       0.00848991       0.00634332      -0.02497007 </v>
   <v>       0.01163847      -0.01008960      -0.01757290 </v>
   <v>       0.00923440       0.00480078       0.01462041 </v>
   <v>       0.02872821      -0.00292792      -0.04058001 </v>
   <v>      -0.04490733      -0.02150576      -0.00454027 </v>
   <v>       0.00991512      -0.01305919      -0.03240065 </v>
   <v>      -0.00369919       0.00952011      -0.02528812 </v>
   <v>      -0.00368831      -0.00736128       0.02135201 </v>
   <v>      -0.01947553       0.04860681      -0.00478205 </v>
   <v>       0.00704470      -0.00699929       0.01736661 </v>
   <v>       0.03409492       0.01137472      -0.04060869 </v>
   <v>       0.01039869       0.00292257       0.00673002 </v>
  </varray>
  <varray name="stress" >
   <v>      -0.10147717       0.06670272      -0.04175159 </v>
   <v>       0.06670286       0.23363543       0.01961096 </v>
   <v>      -0.04175190       0.01961089      -0.08283328 </v>
  </varray>
  <energy>
   <i name="e_fr_energy">  -1088.57935599 </i>
   <i name="e_wo_entrp">  -1088.57935599 </i>
   <i name="e_0_energy">     -0.00000000 </i>
  </energy>
  <time name="totalsc"> 1058.47 1060.95</time>
 </calculation>
 <calculation>
  <scstep>
   <time name="dav">  286.59  286.63</time>
   <time name="total">  290.28  290.42</time>
   <energy>
    <i name="alphaZ">   5616.79527409 </i>
    <i name="ewald"> -61614.57577520 </i>
    <i name="hartreedc"> -16938.39566382 </i>
    <i name="XCdc">   3073.39262810 </i>
    <i name="pawpsdc"> 114259.30725308 </i>
    <i name="pawaedc">-113310.03243637 </i>
    <i name="eentropy">     -0.00000000 </i>
    <i name="bandstr">  -7091.88276725 </i>
    <i name="atom">  74916.81196153 </i>
    <i name="e_fr_energy">  -1088.57952584 </i>
    <i name="e_wo_entrp">  -1088.57952584 </i>
    <i name="e_0_energy">  -1088.57952584 </i>
   </energy>
  </scstep>
  <scstep>
   <time name="diag">   33.28   33.28</time>
   <time name="diis">   51.99   52.00</time>
   <time name="orth">   18.93   18.93</time>
   <time name="total">  107.93  107.95</time>
   <energy>
    <i name="e_fr_energy">  -1088.58338273 </i>
    <i name="e_wo_entrp">  -1088.58338273 </i>
    <i name="e_0_energy">  -1088.58338273 </i>
   </energy>
  </scstep>
  <scstep>
   <time name="diag">   33.27   33.28</time>
   <time name="diis">   54.57   54.58</time>
   <time name="orth">   18.90   18.90</time>
   <time name="total">  110.48  110.58</time>
   <energy>
    <i name="e_fr_energy">  -1088.58340328 </i>
    <i name="e_wo_entrp">  -1088.58340328 </i>
    <i name="e_0_energy">  -1088.58340328 </i>
   </energy>
  </scstep>
  <scstep>
   <time name="diag">   33.29   33.30</time>
   <time name="diis">   49.67   49.68</time>
   <time name="orth">   18.90   18.90</time>
   <time name="total">  105.59  105.64</time>
   <energy>
    <i name="e_fr_energy">  -1088.58297612 </i>
    <i name="e_wo_entrp">  -1088.58297612 </i>
    <i name="e_0_energy">  -1088.58297612 </i>
   </energy>
  </scstep>
  <scstep>
   <time name="diag">   33.28   33.28</time>
   <time name="diis">   44.71   44.73</time>
   <time name="orth">   18.90   18.90</time>
   <time name="total">  100.63  100.71</time>
   <energy>
    <i name="e_fr_energy">  -1088.58285354 </i>
    <i name="e_wo_entrp">  -1088.58285354 </i>
    <i name="e_0_energy">  -1088.58285354 </i>
   </energy>
  </scstep>
  <scstep>
   <time name="diag">   33.26   33.27</time>
   <time name="diis">   33.11   33.14</time>
   <time name="orth">   18.89   18.90</time>
   <time name="total">   89.01   89.07</time>
   <energy>
    <i name="e_fr_energy">  -1088.58285478 </i>
    <i name="e_wo_entrp">  -1088.58285478 </i>
    <i name="e_0_energy">  -1088.58285478 </i>
   </energy>
  </scstep>
  <scstep>
   <time name="diag">   33.21   33.22</time>
   <time name="diis">   32.65   32.65</time>
   <time name="orth">   18.86   18.86</time>
   <time name="total">   88.42   88.48</time>
   <energy>
    <i name="e_fr_energy">  -1088.58285634 </i>
    <i name="e_wo_entrp">  -1088.58285634 </i>
    <i name="e_0_energy">  -1088.58285634 </i>
   </energy>
  </scstep>
  <scstep>
   <time name="diag">   33.18   33.20</time>
   <time name="diis">   32.21   32.23</time>
   <time name="orth">   18.87   18.87</time>
   <time name="total">   84.84   84.96</time>
   <energy>
    <i name="alphaZ">   5616.79527409 </i>
    <i name="ewald"> -61614.57577520 </i>
    <i name="hartreedc"> -16938.55616280 </i>
    <i name="XCdc">   3073.41181488 </i>
    <i name="pawpsdc"> 114248.49224896 </i>
    <i name="pawaedc">-113299.21396604 </i>
    <i name="eentropy">     -0.00000000 </i>
    <i name="bandstr">  -7091.74825311 </i>
    <i name="atom">  74916.81196153 </i>
    <i name="e_fr_energy">  -1088.58285769 </i>
    <i name="e_wo_entrp">  -1088.58285769 </i>
    <i name="e_0_energy">  -1088.58285769 </i>
   </energy>
  </scstep>
  <structure>
   <crystal>
    <varray name="basis" >
     <v>      11.26459344       0.01594524       0.00003333 </v>
     <v>       0.01565925      11.26394408      -0.00109333 </v>
     <v>       0.00001202      -0.00153231      15.81920512 </v>
    </varray>
    <i name="volume">   2007.19610767 </i>
    <varray name="rec_basis" >
     <v>       0.08877391      -0.00012341      -0.00000008 </v>
     <v>      -0.00012567       0.08877903       0.00000860 </v>
     <v>      -0.00000020       0.00000614       0.06321430 </v>
    </varray>
   </crystal>
   <varray name="positions" >
    <v>       0.00075436       0.25515022       0.11521829 </v>
    <v>       0.00259276       0.25181334       0.62627080 </v>
    <v>       0.99558889       0.74292171       0.11730682 </v>
    <v>       0.00320237       0.74308984       0.62511856 </v>
    <v>       0.49910327       0.25647293       0.11292377 </v>
    <v>       0.49475184       0.23730436       0.62777968 </v>
    <v>       0.49816694       0.74063699       0.11902306 </v>
    <v>       0.49799441       0.76018037       0.61672184 </v>
    <v>       0.00152375       0.25510029       0.38312920 </v>
    <v>       0.00242056       0.25245755       0.87627583 </v>
    <v>       0.99552694       0.74266979       0.38106632 </v>
    <v>       0.00245560       0.74341817       0.87728843 </v>
    <v>       0.50083583       0.25658311       0.38459036 </v>
    <v>       0.49555848       0.23628638       0.87625649 </v>
    <v>       0.49812195       0.74093986       0.37785724 </v>
    <v>       0.49699638       0.75953769       0.88557640 </v>
    <v>       0.25525355       0.99940821       0.11382894 </v>
    <v>       0.25041527       0.00336453       0.62593223 </v>
    <v>       0.24740179       0.50905326       0.11639715 </v>
    <v>       0.23964421       0.49414353       0.62319421 </v>
    <v>       0.74636527       0.99398737       0.11553449 </v>
    <v>       0.74779233       0.99962861       0.62724525 </v>
    <v>       0.74834893       0.51000405       0.11880403 </v>
    <v>       0.75997561       0.49737496       0.62211478 </v>
    <v>       0.25026542       0.99780518       0.38471313 </v>
    <v>       0.25191528       0.00343959       0.87688031 </v>
    <v>       0.24595199       0.50981374       0.38155470 </v>
    <v>       0.24418866       0.49556254       0.87939819 </v>
    <v>       0.75255047       0.99233491       0.38188436 </v>
    <v>       0.74593148       0.99940274       0.87578861 </v>
    <v>       0.75027171       0.51106047       0.37876369 </v>
    <v>       0.75535432       0.49867871       0.87982695 </v>
    <v>       0.74666870       0.74817842       0.99696535 </v>
    <v>       0.24788988       0.74822009       0.50209339 </v>
    <v>       0.49884522       0.50202496       0.50325010 </v>
    <v>       0.99955119       0.99975175      -0.00003312 </v>
    <v>       0.49976575       0.00194398       0.49702357 </v>
    <v>       0.74723941       0.24879107       0.00080285 </v>
    <v>       0.75014796       0.24812628       0.49981165 </v>
    <v>       0.75256122       0.24758472       0.75093109 </v>
    <v>       0.00084524       0.49723561       0.75080888 </v>
    <v>       0.25001186       0.24973202       0.99940885 </v>
    <v>       0.25026966       0.74970531       0.24923445 </v>
    <v>       0.00126431       0.00365416       0.75115270 </v>
    <v>      -0.00004920       0.99995137       0.50125480 </v>
    <v>       0.24843509       0.24952204       0.50072571 </v>
    <v>       0.75082443       0.74919960       0.24929066 </v>
    <v>       0.00237560       0.50612449       0.24946709 </v>
    <v>       0.75002548       0.74802255       0.50272488 </v>
    <v>       0.49874879       0.99221595       0.75167268 </v>
    <v>       0.25004051       0.74873391       0.99778428 </v>
    <v>       0.50140795       0.50282167       0.24833586 </v>
    <v>       0.24089641       0.76465840       0.75026018 </v>
    <v>       0.25924011       0.28334375       0.24990912 </v>
    <v>       0.01360731       0.96843709       0.24946482 </v>
    <v>       0.49916944       0.00187887       0.00213509 </v>
    <v>       0.49857679       0.50225302       0.99700334 </v>
    <v>       0.99871444       0.49909629       0.49898742 </v>
    <v>       0.50230188       0.47176411       0.74897235 </v>
    <v>       0.99839552       0.49959021       0.00084235 </v>
    <v>       0.75760558       0.28165478       0.24981002 </v>
    <v>       0.24620832       0.24716706       0.75089645 </v>
    <v>       0.76552624       0.76082452       0.75003088 </v>
    <v>       0.50398698       0.97148514       0.25102576 </v>
    <v>       0.99787353       0.00940688       0.13558594 </v>
    <v>       0.99881744       0.00208556       0.62288031 </v>
    <v>       0.00086186       0.50746420       0.12698073 </v>
    <v>       0.99665219       0.49134760       0.62397444 </v>
    <v>       0.48995726       0.03541340       0.14294020 </v>
    <v>       0.50042761       0.99804056       0.62164481 </v>
    <v>       0.50106436       0.50130493       0.12630864 </v>
    <v>       0.49182113       0.52778329       0.63449927 </v>
    <v>       0.00105283       0.00947672       0.36501397 </v>
    <v>       0.99850216       0.00083115       0.87654867 </v>
    <v>       0.00061988       0.50794090       0.37378520 </v>
    <v>       0.99637766       0.49273053       0.87505523 </v>
    <v>       0.49132290       0.02708430       0.36460279 </v>
    <v>       0.50028088       0.99796653       0.87474026 </v>
    <v>       0.50095604       0.50039018       0.37750567 </v>
    <v>       0.49176333       0.53667959       0.85773614 </v>
    <v>       0.24498688       0.22583587       0.36243485 </v>
    <v>       0.24673740       0.24782281       0.87743571 </v>
    <v>       0.24569363       0.75066858       0.37491817 </v>
    <v>       0.25455443       0.74689721       0.87298980 </v>
    <v>       0.73891676       0.22145165       0.36138233 </v>
    <v>       0.75560773       0.24773434       0.87602571 </v>
    <v>       0.75110468       0.74494398       0.37601261 </v>
    <v>       0.73806468       0.74934923       0.87270610 </v>
    <v>       0.24340568       0.22706669       0.13815066 </v>
    <v>       0.24689681       0.24868970       0.62172691 </v>
    <v>       0.24572509       0.74900754       0.12615272 </v>
    <v>       0.25650549       0.74675545       0.62595888 </v>
    <v>       0.73985089       0.22426076       0.13798191 </v>
    <v>       0.75636660       0.24707466       0.62230407 </v>
    <v>       0.75170363       0.74565354       0.12555165 </v>
    <v>       0.73611969       0.74725924       0.62616725 </v>
    <v>       0.15236302       0.41052040       0.25066829 </v>
    <v>       0.41420687       0.34501238       0.25085302 </v>
    <v>       0.65128242       0.40785304       0.25149281 </v>
    <v>       0.91258561       0.34529733       0.25040756 </v>
    <v>       0.10041074       0.65803283       0.25047083 </v>
    <v>       0.35266891       0.60276879       0.25139105 </v>
    <v>       0.60346226       0.64875967       0.25088174 </v>
    <v>       0.85421152       0.60436361       0.25011212 </v>
    <v>       0.17343951       0.92387736       0.24916765 </v>
    <v>       0.39907163       0.84347233       0.25015353 </v>
    <v>       0.65512911       0.90237682       0.25063265 </v>
    <v>       0.88736133       0.85721128       0.25208000 </v>
    <v>       0.13452262       0.11320748       0.49908872 </v>
    <v>       0.38560378       0.13714384       0.50022216 </v>
    <v>       0.63533578       0.11333576       0.50045982 </v>
    <v>       0.88566496       0.13376564       0.49493002 </v>
    <v>       0.11838459       0.36364145       0.49376189 </v>
    <v>       0.36440004       0.38525205       0.49871841 </v>
    <v>       0.61243796       0.36392851       0.50552070 </v>
    <v>       0.86035877       0.37931837       0.48779584 </v>
    <v>       0.13456943       0.61720218       0.50332918 </v>
    <v>       0.38367693       0.63545505       0.49650855 </v>
    <v>       0.63257421       0.61442394       0.50043907 </v>
    <v>       0.88123117       0.63508242       0.50428929 </v>
    <v>       0.11364478       0.86602363       0.49885476 </v>
    <v>       0.36676745       0.88591452       0.49704832 </v>
    <v>       0.61284791       0.86757265       0.48962706 </v>
    <v>       0.86436481       0.88488195       0.50013387 </v>
    <v>       0.10579419       0.14065036       0.74979670 </v>
    <v>       0.36124596       0.10324696       0.74872435 </v>
    <v>       0.61258209       0.13781987       0.74910394 </v>
    <v>       0.85790363       0.10588786       0.74979411 </v>
    <v>       0.13860544       0.38922052       0.74994993 </v>
    <v>       0.38690716       0.35528550       0.74958896 </v>
    <v>       0.64896860       0.39180730       0.74851169 </v>
    <v>       0.89120238       0.35459202       0.74951677 </v>
    <v>       0.11875538       0.63394340       0.74873926 </v>
    <v>       0.85539376       0.60760999       0.74942888 </v>
    <v>       0.14290127       0.89934561       0.74947165 </v>
    <v>       0.39796805       0.84577372       0.74909284 </v>
    <v>       0.63919582       0.88511942       0.74841480 </v>
    <v>       0.90026068       0.85859810       0.74864426 </v>
    <v>       0.13118612       0.11509657       0.00134919 </v>
    <v>       0.38108611       0.13400628       0.99983497 </v>
    <v>       0.63347210       0.11677291       0.99858039 </v>
    <v>       0.88348046       0.13221818       0.00412880 </v>
    <v>       0.11897338       0.36537659       0.00557842 </v>
    <v>       0.36539737       0.38217410       0.00139778 </v>
    <v>       0.61569113       0.36600839       0.99447610 </v>
    <v>       0.86262397       0.37831087       0.01113717 </v>
    <v>       0.13159042       0.61916572       0.99694148 </v>
    <v>       0.37959384       0.63262490       0.00301890 </v>
    <v>       0.63109763       0.61786296       0.99970642 </v>
    <v>       0.87922494       0.63372946       0.99630280 </v>
    <v>       0.11448942       0.86768474       0.00186740 </v>
    <v>       0.36736243       0.88217446       0.00297332 </v>
    <v>       0.61557821       0.86898978       0.01049501 </v>
    <v>       0.86598010       0.88347240       0.00038555 </v>
   </varray>
  </structure>
  <varray name="forces" >
   <v>      -0.00672758       0.01558007      -0.00328018 </v>
   <v>       0.00512715      -0.00490593      -0.01389724 </v>
   <v>       0.00090863       0.00133158       0.02556349 </v>
   <v>      -0.00329526       0.00662867      -0.02088691 </v>
   <v>      -0.01056150       0.00779533       0.01364165 </v>
   <v>      -0.00699656      -0.00460153      -0.01918211 </v>
   <v>       0.00930972      -0.00416488       0.01687939 </v>
   <v>       0.00341565      -0.01825864       0.00849782 </v>
   <v>       0.00375466       0.01173172       0.01495447 </v>
   <v>      -0.00092021       0.00039777      -0.00946959 </v>
   <v>       0.01337234       0.00126630      -0.00078511 </v>
   <v>      -0.02184544      -0.00595363      -0.00614123 </v>
   <v>      -0.00902831      -0.00478328      -0.00062977 </v>
   <v>      -0.00934044       0.01672422       0.00232757 </v>
   <v>       0.00636124      -0.01002676      -0.01337741 </v>
   <v>      -0.00164364      -0.01739757      -0.01949762 </v>
   <v>      -0.02614187      -0.00823434       0.01785927 </v>
   <v>      -0.01305057       0.02118211      -0.02381375 </v>
   <v>      -0.00062487       0.00797167       0.01711603 </v>
   <v>      -0.01200722      -0.01226498      -0.00179478 </v>
   <v>       0.01202632      -0.00205197       0.01086623 </v>
   <v>       0.00692026       0.01135730      -0.01202992 </v>
   <v>       0.00293773       0.00666015       0.00062307 </v>
   <v>       0.00999422      -0.00784359      -0.01235958 </v>
   <v>      -0.01954900      -0.00219160       0.00325102 </v>
   <v>      -0.00377062       0.01994290      -0.00690517 </v>
   <v>      -0.00542408       0.00913112      -0.00726632 </v>
   <v>      -0.01262688      -0.01819970      -0.00696573 </v>
   <v>       0.00349585      -0.00106912      -0.00309218 </v>
   <v>      -0.00580447       0.00810852       0.01213796 </v>
   <v>       0.01110269       0.01218566       0.00315517 </v>
   <v>      -0.00131541      -0.00319105      -0.01760371 </v>
   <v>       0.01870786       0.00673309       0.01428446 </v>
   <v>      -0.05754923       0.00036626      -0.02665450 </v>
   <v>       0.01245670      -0.00499938      -0.01419769 </v>
   <v>      -0.09790318       0.03304148       0.02800930 </v>
   <v>      -0.00533784      -0.00811419      -0.01495049 </v>
   <v>       0.04242350      -0.01875841      -0.00001923 </v>
   <v>       0.07078831       0.02803831      -0.02681579 </v>
   <v>       0.02303289       0.01791921      -0.01691425 </v>
   <v>       0.00935203      -0.01435078      -0.04974030 </v>
   <v>      -0.01963260       0.03532382      -0.00151283 </v>
   <v>      -0.04642191      -0.03157488       0.05933020 </v>
   <v>      -0.00138673       0.03467867      -0.03454069 </v>
   <v>      -0.00953298      -0.00096937      -0.04353681 </v>
   <v>      -0.04988051       0.00281214      -0.01265332 </v>
   <v>       0.01508900      -0.00514969       0.03928664 </v>
   <v>      -0.00455955       0.00332345       0.06251489 </v>
   <v>       0.04017282       0.00474721      -0.03712142 </v>
   <v>      -0.00888223       0.00482755      -0.02430530 </v>
   <v>      -0.01723700      -0.04569971      -0.00323739 </v>
   <v>       0.00044081       0.01654451       0.04047256 </v>
   <v>       0.00207753      -0.00081465      -0.02154344 </v>
   <v>      -0.02633084       0.00550960       0.05147072 </v>
   <v>      -0.01448608      -0.01743285       0.05389450 </v>
   <v>       0.02033148       0.00578017       0.01097779 </v>
   <v>      -0.00716696       0.00223163      -0.01569260 </v>
   <v>      -0.00826203       0.00507086      -0.00625867 </v>
   <v>       0.00470738       0.00514858      -0.00317503 </v>
   <v>      -0.01031530      -0.00467424      -0.00519706 </v>
   <v>       0.02513338      -0.00200120       0.03288731 </v>
   <v>       0.00692527       0.00554577      -0.01872315 </v>
   <v>       0.01079821      -0.00427157      -0.01663893 </v>
   <v>       0.01048185      -0.00717496       0.04523978 </v>
   <v>       0.01230176      -0.01231277      -0.01546904 </v>
   <v>      -0.00702017       0.01806799       0.08088342 </v>
   <v>       0.00228286      -0.01348520      -0.03195439 </v>
   <v>       0.00159519       0.03883475       0.06030367 </v>
   <v>       0.01969310      -0.00681128      -0.03368071 </v>
   <v>       0.00133584       0.00769013       0.03436434 </v>
   <v>      -0.00580148       0.00451383      -0.02252465 </v>
   <v>      -0.00627438       0.01032465       0.00696541 </v>
   <v>       0.01304426      -0.02157726      -0.05279219 </v>
   <v>       0.00496707       0.01187826      -0.02159767 </v>
   <v>      -0.00171000      -0.02035905      -0.03614210 </v>
   <v>      -0.00247273       0.04436198      -0.00187688 </v>
   <v>       0.01973521       0.00626058      -0.02864161 </v>
   <v>      -0.00200155       0.00607197       0.01325933 </v>
[...]
       <r>   -16.5641     0.0000    32.0000 </r>
       <r>   -16.4113     0.0000    32.0000 </r>
       <r>   -16.2585     0.0000    32.0000 </r>
       <r>   -16.1057     0.0000    32.0000 </r>
       <r>   -15.9528     0.0000    32.0000 </r>
       <r>   -15.8000     0.0000    32.0000 </r>
       <r>   -15.6472     0.0000    32.0000 </r>
       <r>   -15.4944     0.0000    32.0000 </r>
       <r>   -15.3415     0.0000    32.0000 </r>
       <r>   -15.1887     2.0250    32.3095 </r>
       <r>   -15.0359    20.7458    35.4800 </r>
       <r>   -14.8831    45.6413    42.4552 </r>
       <r>   -14.7302    48.2295    49.8259 </r>
       <r>   -14.5774    33.3285    54.9194 </r>
       <r>   -14.4246    37.2173    60.6071 </r>
       <r>   -14.2718    48.3076    67.9898 </r>
       <r>   -14.1189    87.9331    81.4283 </r>
       <r>   -13.9661   111.2253    98.4264 </r>
       <r>   -13.8133    86.8755   111.7033 </r>
       <r>   -13.6604    54.9594   120.1025 </r>
       <r>   -13.5076    12.4157   121.9999 </r>
       <r>   -13.3548     0.0004   122.0000 </r>
       <r>   -13.2020     0.0000   122.0000 </r>
       <r>   -13.0491     0.0000   122.0000 </r>
       <r>   -12.8963     0.0000   122.0000 </r>
       <r>   -12.7435     2.2989   122.3513 </r>
       <r>   -12.5907    50.8107   130.1165 </r>
       <r>   -12.4378   135.1815   150.7758 </r>
       <r>   -12.2850   139.9422   172.1626 </r>
       <r>   -12.1322   126.0440   191.4255 </r>
       <r>   -11.9794   107.5089   207.8556 </r>
       <r>   -11.8265    51.5726   215.7373 </r>
       <r>   -11.6737    13.9584   217.8705 </r>
       <r>   -11.5209     0.8474   218.0000 </r>
       <r>   -11.3681     0.0000   218.0000 </r>
       <r>   -11.2152     0.0000   218.0000 </r>
       <r>   -11.0624     0.0000   218.0000 </r>
       <r>   -10.9096     0.0000   218.0000 </r>
       <r>   -10.7568     0.0000   218.0000 </r>
       <r>   -10.6039     0.0000   218.0000 </r>
       <r>   -10.4511     0.0000   218.0000 </r>
       <r>   -10.2983     0.0000   218.0000 </r>
       <r>   -10.1454     0.0000   218.0000 </r>
       <r>    -9.9926     0.0000   218.0000 </r>
       <r>    -9.8398     0.0000   218.0000 </r>
       <r>    -9.6870     0.0000   218.0000 </r>
       <r>    -9.5341     0.0000   218.0000 </r>
       <r>    -9.3813     0.0000   218.0000 </r>
       <r>    -9.2285     0.0000   218.0000 </r>
       <r>    -9.0757     0.0000   218.0000 </r>
       <r>    -8.9228     0.0000   218.0000 </r>
       <r>    -8.7700     0.0000   218.0000 </r>
       <r>    -8.6172     0.0000   218.0000 </r>
       <r>    -8.4644     0.0000   218.0000 </r>
       <r>    -8.3115     0.0000   218.0000 </r>
       <r>    -8.1587     0.0000   218.0000 </r>
       <r>    -8.0059     0.0000   218.0000 </r>
       <r>    -7.8531     0.0000   218.0000 </r>
       <r>    -7.7002     0.0000   218.0000 </r>
       <r>    -7.5474     0.0000   218.0000 </r>
       <r>    -7.3946     0.0000   218.0000 </r>
       <r>    -7.2418     0.0000   218.0000 </r>
       <r>    -7.0889     0.0000   218.0000 </r>
       <r>    -6.9361     0.0000   218.0000 </r>
       <r>    -6.7833     0.0000   218.0000 </r>
       <r>    -6.6304     0.0000   218.0000 </r>
       <r>    -6.4776     0.0000   218.0000 </r>
       <r>    -6.3248     0.0000   218.0000 </r>
       <r>    -6.1720     0.0000   218.0000 </r>
       <r>    -6.0191     0.0000   218.0000 </r>
       <r>    -5.8663     0.0000   218.0000 </r>
       <r>    -5.7135     0.0000   218.0000 </r>
       <r>    -5.5607     0.0000   218.0000 </r>
       <r>    -5.4078     0.0000   218.0000 </r>
       <r>    -5.2550     0.0000   218.0000 </r>
       <r>    -5.1022     0.0000   218.0000 </r>
       <r>    -4.9494     0.0000   218.0000 </r>
       <r>    -4.7965     0.0000   218.0000 </r>
       <r>    -4.6437     0.0000   218.0000 </r>
       <r>    -4.4909     0.0000   218.0000 </r>
       <r>    -4.3381     0.0000   218.0000 </r>
       <r>    -4.1852     0.0000   218.0000 </r>
       <r>    -4.0324     0.0000   218.0000 </r>
       <r>    -3.8796     0.0000   218.0000 </r>
       <r>    -3.7267     0.0000   218.0000 </r>
       <r>    -3.5739     0.0013   218.0002 </r>
       <r>    -3.4211     5.1354   218.7850 </r>
       <r>    -3.2683     1.4067   219.0000 </r>
       <r>    -3.1154     1.8856   219.2882 </r>
       <r>    -2.9626     8.0931   220.5250 </r>
       <r>    -2.8098     3.1082   221.0000 </r>
       <r>    -2.6570     4.0860   221.6245 </r>
       <r>    -2.5041     2.5426   222.0131 </r>
       <r>    -2.3513    11.1803   223.7217 </r>
       <r>    -2.1985    15.8565   226.1450 </r>
       <r>    -2.0457    24.4553   229.8824 </r>
       <r>    -1.8928    31.1152   234.6376 </r>
       <r>    -1.7400    34.3627   239.8891 </r>
       <r>    -1.5872    48.4302   247.2905 </r>
       <r>    -1.4344    41.8323   253.6836 </r>
       <r>    -1.2815    62.9513   263.3042 </r>
       <r>    -1.1287    67.8830   273.6785 </r>
       <r>    -0.9759    76.9513   285.4387 </r>
       <r>    -0.8231    76.9025   297.1914 </r>
       <r>    -0.6702    87.1849   310.5155 </r>
       <r>    -0.5174   100.9481   325.9430 </r>
       <r>    -0.3646    90.3143   339.7454 </r>
       <r>    -0.2117    64.5428   349.6093 </r>
       <r>    -0.0589    51.7337   357.5155 </r>
       <r>     0.0939    48.9041   364.9893 </r>
       <r>     0.2467    54.1710   373.2681 </r>
       <r>     0.3996    54.4991   381.5970 </r>
       <r>     0.5524    56.7436   390.2689 </r>
       <r>     0.7052    53.4630   398.4394 </r>
       <r>     0.8580    50.8702   406.2137 </r>
       <r>     1.0109    53.7070   414.4216 </r>
       <r>     1.1637    67.6303   424.7572 </r>
       <r>     1.3165    84.3569   437.6492 </r>
       <r>     1.4693    86.7057   450.9001 </r>
       <r>     1.6222    86.0309   464.0478 </r>
       <r>     1.7750    73.8829   475.3391 </r>
       <r>     1.9278    44.6427   482.1617 </r>
       <r>     2.0806    40.0073   488.2758 </r>
       <r>     2.2335    20.2408   491.3691 </r>
       <r>     2.3863     4.1275   491.9999 </r>
       <r>     2.5391     0.0004   492.0000 </r>
       <r>     2.6919     0.0000   492.0000 </r>
       <r>     2.8448     0.0000   492.0000 </r>
       <r>     2.9976     0.0000   492.0000 </r>
       <r>     3.1504     2.3081   492.3527 </r>
       <r>     3.3033     4.2350   493.0000 </r>
       <r>     3.4561     0.0003   493.0000 </r>
       <r>     3.6089     0.0000   493.0000 </r>
       <r>     3.7617     0.0000   493.0000 </r>
       <r>     3.9146     0.0000   493.0000 </r>
       <r>     4.0674     0.0000   493.0000 </r>
       <r>     4.2202     0.0000   493.0000 </r>
       <r>     4.3730     0.0012   493.0002 </r>
       <r>     4.5259    10.6694   494.6308 </r>
       <r>     4.6787    49.8843   502.2544 </r>
       <r>     4.8315    42.9806   508.8229 </r>
       <r>     4.9843    39.8271   514.9096 </r>
       <r>     5.1372    61.1547   524.2556 </r>
       <r>     5.2900    77.3167   536.0716 </r>
       <r>     5.4428    62.0536   545.5550 </r>
       <r>     5.5956    68.7287   556.0586 </r>
       <r>     5.7485    59.6732   565.1782 </r>
       <r>     5.9013    79.9622   577.3985 </r>
       <r>     6.0541    93.0691   591.6219 </r>
       <r>     6.2070    73.1290   602.7979 </r>
       <r>     6.3598    45.1908   609.7043 </r>
       <r>     6.5126    10.7379   611.3453 </r>
       <r>     6.6654    14.5781   613.5732 </r>
       <r>     6.8183    19.5933   616.5676 </r>
       <r>     6.9711    19.7439   619.5850 </r>
       <r>     7.1239    16.2771   622.0725 </r>
       <r>     7.2767    13.0474   624.0665 </r>
       <r>     7.4296    12.3316   625.9511 </r>
       <r>     7.5824    16.9151   628.5362 </r>
       <r>     7.7352    18.9803   631.4369 </r>
       <r>     7.8880    23.8094   635.0756 </r>
       <r>     8.0409    23.1442   638.6126 </r>
       <r>     8.1937    25.2762   642.4755 </r>
       <r>     8.3465    25.9043   646.4343 </r>
       <r>     8.4993    23.2091   649.9813 </r>
       <r>     8.6522    20.6081   653.1307 </r>
       <r>     8.8050    25.9484   657.0963 </r>
       <r>     8.9578    34.2845   662.3359 </r>
       <r>     9.1106    41.6101   668.6950 </r>
       <r>     9.2635    32.2302   673.6206 </r>
       <r>     9.4163    40.9269   679.8753 </r>
       <r>     9.5691    40.6451   686.0870 </r>
       <r>     9.7220    49.3512   693.6291 </r>
       <r>     9.8748    60.1078   702.8152 </r>
       <r>    10.0276    63.4350   712.5097 </r>
       <r>    10.1804    57.9458   721.3653 </r>
       <r>    10.3333    58.9310   730.3715 </r>
       <r>    10.4861    53.6461   738.5701 </r>
       <r>    10.6389    64.0848   748.3639 </r>
       <r>    10.7917    49.9765   756.0016 </r>
       <r>    10.9446    54.8873   764.3898 </r>
       <r>    11.0974    23.6087   767.9978 </r>
       <r>    11.2502     0.0141   768.0000 </r>
       <r>    11.4030     0.0000   768.0000 </r>
       <r>    11.5559     0.0000   768.0000 </r>
       <r>    11.7087     0.0000   768.0000 </r>
       <r>    11.8615     0.0000   768.0000 </r>
       <r>    12.0143     0.0000   768.0000 </r>
       <r>    12.1672     0.0000   768.0000 </r>
       <r>    12.3200     0.0000   768.0000 </r>
       <r>    12.4728     0.0000   768.0000 </r>
       <r>    12.6257     0.0000   768.0000 </r>
       <r>    12.7785     0.0000   768.0000 </r>
       <r>    12.9313     0.0000   768.0000 </r>
       <r>    13.0841     0.0000   768.0000 </r>
      </set>
     </set>
    </array>
   </total>
  </dos>
 </calculation>
 <structure name="finalpos" >
  <crystal>
   <varray name="basis" >
    <v>      11.26477302       0.01611743      -0.00018325 </v>
    <v>       0.01583183      11.26393829      -0.00121761 </v>
    <v>      -0.00029195      -0.00170658      15.81818260 </v>
   </varray>
   <i name="volume">   2007.09724087 </i>
   <varray name="rec_basis" >
    <v>       0.08877250      -0.00012477       0.00000163 </v>
    <v>      -0.00012702       0.08877908       0.00000958 </v>
    <v>       0.00000102       0.00000683       0.06321839 </v>
   </varray>
  </crystal>
  <varray name="positions" >
   <v>       0.00070594       0.25601341       0.11461356 </v>
   <v>       0.00245879       0.25202889       0.62626302 </v>
   <v>       0.99571170       0.74276817       0.11727436 </v>
   <v>       0.00297809       0.74320510       0.62516114 </v>
   <v>       0.49890901       0.25635614       0.11270541 </v>
   <v>       0.49453045       0.23689435       0.62718161 </v>
   <v>       0.49820813       0.74098296       0.11865341 </v>
   <v>       0.49809134       0.75934131       0.61721993 </v>
   <v>       0.00195209       0.25583035       0.38353332 </v>
   <v>       0.00238944       0.25273725       0.87607868 </v>
   <v>       0.99593297       0.74263213       0.38131497 </v>
   <v>       0.00159739       0.74328773       0.87720667 </v>
   <v>       0.50048406       0.25612633       0.38494605 </v>
   <v>       0.49505022       0.23670269       0.87664137 </v>
   <v>       0.49821180       0.74092155       0.37808338 </v>
   <v>       0.49686179       0.75921826       0.88524861 </v>
   <v>       0.25408128       0.99890377       0.11354178 </v>
   <v>       0.24987857       0.00405833       0.62546863 </v>
   <v>       0.24756649       0.50963127       0.11651130 </v>
   <v>       0.23944461       0.49412124       0.62326638 </v>
   <v>       0.74643863       0.99423330       0.11551631 </v>
   <v>       0.74742239       0.00004808       0.62720469 </v>
   <v>       0.74843972       0.51009916       0.11790774 </v>
   <v>       0.76020110       0.49743535       0.62228570 </v>
   <v>       0.25001002       0.99761937       0.38514401 </v>
   <v>       0.25164063       0.00392125       0.87711900 </v>
   <v>       0.24613233       0.51031551       0.38154234 </v>
   <v>       0.24343237       0.49530276       0.87938119 </v>
   <v>       0.75228539       0.99240446       0.38207053 </v>
   <v>       0.74484528       0.99974729       0.87620048 </v>
   <v>       0.75060327       0.51153162       0.37930522 </v>
   <v>       0.75519757       0.49879663       0.87920253 </v>
   <v>       0.74641317       0.74817394       0.99680505 </v>
   <v>       0.24803793       0.74815365       0.50253182 </v>
   <v>       0.49892393       0.50186981       0.50330835 </v>
   <v>       0.99918687       0.99982192      -0.00005416 </v>
   <v>       0.49960770       0.00154785       0.49741822 </v>
   <v>       0.74722871       0.24873226       0.00067540 </v>
   <v>       0.75020898       0.24819429       0.49971134 </v>
   <v>       0.75234488       0.24742489       0.75083271 </v>
   <v>       0.00092172       0.49790993       0.75072138 </v>
   <v>       0.24994070       0.24978844       0.99945692 </v>
   <v>       0.25040648       0.74950204       0.24948248 </v>
   <v>       0.00106280       0.00406430       0.75100397 </v>
   <v>      -0.00041163       0.99993822       0.50110095 </v>
   <v>       0.24821954       0.24949944       0.50075455 </v>
   <v>       0.75047183       0.74929656       0.24936483 </v>
   <v>       0.00238155       0.50578090       0.24960388 </v>
   <v>       0.74992315       0.74793919       0.50301379 </v>
   <v>       0.49839826       0.99241430       0.75179926 </v>
   <v>       0.25006380       0.74866038       0.99749339 </v>
   <v>       0.50189185       0.50316830       0.24831201 </v>
   <v>       0.24111824       0.76489228       0.75026236 </v>
   <v>       0.25972730       0.28330780       0.24994493 </v>
   <v>       0.01396301       0.96744788       0.24959909 </v>
   <v>       0.49895255       0.00196562       0.00248176 </v>
   <v>       0.49844649       0.50225321       0.99649396 </v>
   <v>       0.99883687       0.49952339       0.49926420 </v>
   <v>       0.50247116       0.47124094       0.74893530 </v>
   <v>       0.99825800       0.49995043       0.00055581 </v>
   <v>       0.75800368       0.28253879       0.24978198 </v>
   <v>       0.24641142       0.24673900       0.75082140 </v>
   <v>       0.76570404       0.76109567       0.75003806 </v>
   <v>       0.50421342       0.97165066       0.25091119 </v>
   <v>       0.99850278       0.00809469       0.13562889 </v>
   <v>       0.99788140       0.00370396       0.62289921 </v>
   <v>       0.00079107       0.50624035       0.12692375 </v>
   <v>       0.99684151       0.49341696       0.62428866 </v>
   <v>       0.49141575       0.03466796       0.14221827 </v>
   <v>       0.50028486       0.99833615       0.62184075 </v>
   <v>       0.50035240       0.50185511       0.12622092 </v>
   <v>       0.49131992       0.52764890       0.63471919 </v>
   <v>       0.00201907       0.00735767       0.36521204 </v>
   <v>       0.99850118       0.00190257       0.87644073 </v>
   <v>       0.00052467       0.50684136       0.37388308 </v>
   <v>       0.99617998       0.49479948       0.87484796 </v>
   <v>       0.49221773       0.02703942       0.36450216 </v>
   <v>       0.50000872       0.99847999       0.87474243 </v>
   <v>       0.50112490       0.50055376       0.37754299 </v>
   <v>       0.49176140       0.53585255       0.85781567 </v>
   <v>       0.24513276       0.22586615       0.36245091 </v>
   <v>       0.24693322       0.24627761       0.87729479 </v>
   <v>       0.24569944       0.75079001       0.37513344 </v>
   <v>       0.25491848       0.74685428       0.87290574 </v>
   <v>       0.73894094       0.22224340       0.36121566 </v>
   <v>       0.75494936       0.24671075       0.87587083 </v>
   <v>       0.74953044       0.74525049       0.37617891 </v>
   <v>       0.73836346       0.74767700       0.87246216 </v>
   <v>       0.24426939       0.22747595       0.13786118 </v>
   <v>       0.24761174       0.24758192       0.62186480 </v>
   <v>       0.24556748       0.74874699       0.12614325 </v>
   <v>       0.25758218       0.74496391       0.62640031 </v>
   <v>       0.74053713       0.22496168       0.13792855 </v>
   <v>       0.75641550       0.24553615       0.62229121 </v>
   <v>       0.75027416       0.74588997       0.12541889 </v>
   <v>       0.73642603       0.74583131       0.62666793 </v>
   <v>       0.15269315       0.41019469       0.25070119 </v>
   <v>       0.41520049       0.34451656       0.25086046 </v>
   <v>       0.65278322       0.40980067       0.25100519 </v>
   <v>       0.91350659       0.34479458       0.25046996 </v>
   <v>       0.10068668       0.65753027       0.25065982 </v>
   <v>       0.35253280       0.60269212       0.25167920 </v>
   <v>       0.60262438       0.64968071       0.25077584 </v>
   <v>       0.85433709       0.60466519       0.25017804 </v>
   <v>       0.17406702       0.92415660       0.24928868 </v>
   <v>       0.39920802       0.84365297       0.25011150 </v>
   <v>       0.65544103       0.90293753       0.25058313 </v>
   <v>       0.88721782       0.85701464       0.25216200 </v>
   <v>       0.13280401       0.11474586       0.49872110 </v>
   <v>       0.38383875       0.13542701       0.50003091 </v>
   <v>       0.63366642       0.11457073       0.50028000 </v>
   <v>       0.88407927       0.13243260       0.49351975 </v>
   <v>       0.11915234       0.36468311       0.49494232 </v>
   <v>       0.36538647       0.38398334       0.49885279 </v>
   <v>       0.61317969       0.36452669       0.50541566 </v>
   <v>       0.86120643       0.37858694       0.48913713 </v>
   <v>       0.13394989       0.61819945       0.50310865 </v>
   <v>       0.38315330       0.63447615       0.49657259 </v>
   <v>       0.63197422       0.61471283       0.50096836 </v>
   <v>       0.88055769       0.63456174       0.50360371 </v>
   <v>       0.11501281       0.86708368       0.50024735 </v>
   <v>       0.36753964       0.88487118       0.49706724 </v>
   <v>       0.61359321       0.86816018       0.49090426 </v>
   <v>       0.86508556       0.88365630       0.50048253 </v>
   <v>       0.10506286       0.14103724       0.74960646 </v>
   <v>       0.36011434       0.10174759       0.74861829 </v>
   <v>       0.61122396       0.13889518       0.74899750 </v>
   <v>       0.85686163       0.10532360       0.74997112 </v>
   <v>       0.13859557       0.38902392       0.75001721 </v>
   <v>       0.38780295       0.35385068       0.74964840 </v>
   <v>       0.65017617       0.39293474       0.74829191 </v>
   <v>       0.89117888       0.35463667       0.74946202 </v>
   <v>       0.11917529       0.63406711       0.74903537 </v>
   <v>       0.85587529       0.60794035       0.74940417 </v>
   <v>       0.14319504       0.89977808       0.74896577 </v>
   <v>       0.39899308       0.84485028       0.74921109 </v>
   <v>       0.63992955       0.88600193       0.74864692 </v>
   <v>       0.90075193       0.85844543       0.74859377 </v>
   <v>       0.12983463       0.11647506       0.00191645 </v>
   <v>       0.37999605       0.13304827       0.99998445 </v>
   <v>       0.63200169       0.11816920       0.99894299 </v>
   <v>       0.88209598       0.13097025       0.00475109 </v>
   <v>       0.11985280       0.36649432       0.00431491 </v>
   <v>       0.36641540       0.38120998       0.00082715 </v>
   <v>       0.61676953       0.36710674       0.99488988 </v>
   <v>       0.86365793       0.37763562       0.00950904 </v>
   <v>       0.13079690       0.62030775       0.99711290 </v>
   <v>       0.37890321       0.63205693       0.00247105 </v>
   <v>       0.63020998       0.61850018       0.99936145 </v>
   <v>       0.87846159       0.63318736       0.99723463 </v>
   <v>       0.11587903       0.86888708       0.00139560 </v>
   <v>       0.36807178       0.88152314       0.00328978 </v>
   <v>       0.61668951       0.87002177       0.00900404 </v>
   <v>       0.86704917       0.88240844       0.00016051 </v>
  </varray>
 </structure>
</modeling>
