<?xml version="1.0" encoding="ISO-8859-1"?>
<modeling>
 <generator>
  <i name="program" type="string">vasp </i>
  <i name="version" type="string">5.4.1  </i>
  <i name="subversion" type="string">05Feb16 (build Jan 25 2017 20:16:33) complex                          parallel </i>
  <i name="platform" type="string">BWXE6 </i>
  <i name="date" type="string">2019 07 01 </i>
  <i name="time" type="string">15:56:00 </i>
 </generator>
 <incar>
  <i type="string" name="SYSTEM"> STF</i>
  <i type="string" name="PREC">normal</i>
  <i type="string" name="ALGO"> Fast</i>
  <i type="int" name="ISPIN">     2</i>
  <i type="int" name="NELM">    40</i>
  <i type="int" name="NELMIN">     8</i>
  <i type="int" name="IBRION">     2</i>
  <i name="EDIFF">      0.00010000</i>
  <i name="EDIFFG">     -0.03000000</i>
  <i type="int" name="NSW">    30</i>
  <i type="int" name="ISIF">     3</i>
  <i name="ENCUT">    520.00000000</i>
  <i type="int" name="NBANDS">   768</i>
  <v name="MAGMOM">      0.60000000      0.60000000      0.60000000      0.60000000      0.60000000      0.60000000      0.60000000      0.60000000      0.60000000      0.60000000      0.60000000      0.60000000      0.60000000      0.60000000      0.60000000      0.60000000      0.60000000      0.60000000      0.60000000      0.60000000
      0.60000000      0.60000000      0.60000000      0.60000000      0.60000000      0.60000000      0.60000000      0.60000000      0.60000000      0.60000000      0.60000000      0.60000000      0.60000000      0.60000000      0.60000000      0.60000000      0.60000000      0.60000000      0.60000000      0.60000000
      5.00000000      5.00000000      5.00000000      5.00000000      5.00000000      5.00000000      5.00000000      5.00000000      5.00000000      5.00000000      5.00000000      5.00000000      5.00000000      5.00000000      5.00000000      5.00000000      5.00000000      5.00000000      5.00000000      5.00000000
      5.00000000      5.00000000      5.00000000      5.00000000      0.60000000      0.60000000      0.60000000      0.60000000      0.60000000      0.60000000      0.60000000      0.60000000      0.60000000      0.60000000      0.60000000      0.60000000      0.60000000      0.60000000      0.60000000      0.60000000
      0.60000000      0.60000000      0.60000000      0.60000000      0.60000000      0.60000000      0.60000000      0.60000000      0.60000000      0.60000000      0.60000000      0.60000000      0.60000000      0.60000000      0.60000000      0.60000000      0.60000000      0.60000000      0.60000000      0.60000000
      0.60000000      0.60000000      0.60000000      0.60000000      0.60000000      0.60000000      0.60000000      0.60000000      0.60000000      0.60000000      0.60000000      0.60000000      0.60000000      0.60000000      0.60000000      0.60000000      0.60000000      0.60000000      0.60000000      0.60000000
      0.60000000      0.60000000      0.60000000      0.60000000      0.60000000      0.60000000      0.60000000      0.60000000      0.60000000      0.60000000      0.60000000      0.60000000      0.60000000      0.60000000      0.60000000      0.60000000      0.60000000      0.60000000      0.60000000      0.60000000
      0.60000000      0.60000000      0.60000000      0.60000000      0.60000000      0.60000000      0.60000000      0.60000000</v>
  <i type="string" name="LREAL"> Auto</i>
  <i type="int" name="ISMEAR">     0</i>
  <i name="SIGMA">      0.05000000</i>
  <i type="int" name="LMAXMIX">     4</i>
  <v type="int" name="KPOINT_BSE">    -1     0     0     0</v>
  <i type="int" name="NELM">    40</i>
  <i type="logical" name="LDAU"> T  </i>
  <v type="int" name="LDAUTYPE">     2</v>
  <v type="int" name="LDAUL">     0     2     2     0</v>
  <v name="LDAUU">      0.00000000      3.00000000      5.00000000      0.00000000</v>
  <v name="LDAUJ">      0.00000000      0.00000000      0.00000000      0.00000000</v>
  <i type="int" name="LDAUPRINT">     1</i>
 </incar>
 <kpoints>
  <generation param="Monkhorst-Pack">
   <v type="int" name="divisions">       2        2        2 </v>
   <v name="usershift">      0.00000000       0.00000000       0.00000000 </v>
   <v name="genvec1">      0.50000000       0.00000000       0.00000000 </v>
   <v name="genvec2">      0.00000000       0.50000000       0.00000000 </v>
   <v name="genvec3">     -0.00000000       0.00000000       0.50000000 </v>
   <v name="shift">      0.50000000       0.50000000       0.50000000 </v>
  </generation>
  <varray name="kpointlist" >
   <v>       0.25000000       0.25000000       0.25000000 </v>
   <v>      -0.25000000       0.25000000       0.25000000 </v>
   <v>       0.25000000      -0.25000000       0.25000000 </v>
   <v>      -0.25000000      -0.25000000       0.25000000 </v>
  </varray>
  <varray name="weights" >
   <v>       0.25000000 </v>
   <v>       0.25000000 </v>
   <v>       0.25000000 </v>
   <v>       0.25000000 </v>
  </varray>
 </kpoints>
 <parameters>
  <separator name="general" >
   <i type="string" name="SYSTEM">STF</i>
   <i type="logical" name="LCOMPAT"> F  </i>
  </separator>
  <separator name="electronic" >
   <i type="string" name="PREC">normal</i>
   <i name="ENMAX">    520.00000000</i>
   <i name="ENAUG">    605.39200000</i>
   <i name="EDIFF">      0.00010000</i>
   <i type="int" name="IALGO">    68</i>
   <i type="int" name="IWAVPR">    11</i>
   <i type="int" name="NBANDS">   768</i>
   <i name="NELECT">   1048.00000000</i>
   <i type="int" name="TURBO">     0</i>
   <i type="int" name="IRESTART">     0</i>
   <i type="int" name="NREBOOT">     0</i>
   <i type="int" name="NMIN">     0</i>
   <i name="EREF">      0.00000000</i>
   <separator name="electronic smearing" >
    <i type="int" name="ISMEAR">     0</i>
    <i name="SIGMA">      0.05000000</i>
    <i name="KSPACING">      0.50000000</i>
    <i type="logical" name="KGAMMA"> T  </i>
   </separator>
   <separator name="electronic projectors" >
    <i type="logical" name="LREAL"> T  </i>
    <v name="ROPT">     -0.00050000     -0.00050000     -0.00050000     -0.00050000</v>
    <i type="int" name="LMAXPAW">  -100</i>
    <i type="int" name="LMAXMIX">     4</i>
    <i type="logical" name="NLSPLINE"> F  </i>
   </separator>
   <separator name="electronic startup" >
    <i type="int" name="ISTART">     1</i>
    <i type="int" name="ICHARG">     0</i>
    <i type="int" name="INIWAV">     1</i>
   </separator>
   <separator name="electronic spin" >
    <i type="int" name="ISPIN">     2</i>
    <i type="logical" name="LNONCOLLINEAR"> F  </i>
    <v name="MAGMOM">      0.60000000      0.60000000      0.60000000      0.60000000      0.60000000      0.60000000      0.60000000      0.60000000      0.60000000      0.60000000      0.60000000      0.60000000      0.60000000      0.60000000      0.60000000      0.60000000      0.60000000      0.60000000      0.60000000      0.60000000
      0.60000000      0.60000000      0.60000000      0.60000000      0.60000000      0.60000000      0.60000000      0.60000000      0.60000000      0.60000000      0.60000000      0.60000000      0.60000000      0.60000000      0.60000000      0.60000000      0.60000000      0.60000000      0.60000000      0.60000000
      5.00000000      5.00000000      5.00000000      5.00000000      5.00000000      5.00000000      5.00000000      5.00000000      5.00000000      5.00000000      5.00000000      5.00000000      5.00000000      5.00000000      5.00000000      5.00000000      5.00000000      5.00000000      5.00000000      5.00000000
      5.00000000      5.00000000      5.00000000      5.00000000      0.60000000      0.60000000      0.60000000      0.60000000      0.60000000      0.60000000      0.60000000      0.60000000      0.60000000      0.60000000      0.60000000      0.60000000      0.60000000      0.60000000      0.60000000      0.60000000
      0.60000000      0.60000000      0.60000000      0.60000000      0.60000000      0.60000000      0.60000000      0.60000000      0.60000000      0.60000000      0.60000000      0.60000000      0.60000000      0.60000000      0.60000000      0.60000000      0.60000000      0.60000000      0.60000000      0.60000000
      0.60000000      0.60000000      0.60000000      0.60000000      0.60000000      0.60000000      0.60000000      0.60000000      0.60000000      0.60000000      0.60000000      0.60000000      0.60000000      0.60000000      0.60000000      0.60000000      0.60000000      0.60000000      0.60000000      0.60000000
      0.60000000      0.60000000      0.60000000      0.60000000      0.60000000      0.60000000      0.60000000      0.60000000      0.60000000      0.60000000      0.60000000      0.60000000      0.60000000      0.60000000      0.60000000      0.60000000      0.60000000      0.60000000      0.60000000      0.60000000
      0.60000000      0.60000000      0.60000000      0.60000000      0.60000000      0.60000000      0.60000000      0.60000000</v>
    <i name="NUPDOWN">     -1.00000000</i>
    <i type="logical" name="LSORBIT"> F  </i>
    <v name="SAXIS">      0.00000000      0.00000000      1.00000000</v>
    <i type="logical" name="LSPIRAL"> F  </i>
    <v name="QSPIRAL">      0.00000000      0.00000000      0.00000000</v>
    <i type="logical" name="LZEROZ"> F  </i>
   </separator>
   <separator name="electronic exchange-correlation" >
    <i type="logical" name="LASPH"> F  </i>
    <i type="logical" name="LMETAGGA"> F  </i>
   </separator>
   <separator name="electronic convergence" >
    <i type="int" name="NELM">    40</i>
    <i type="int" name="NELMDL">     0</i>
    <i type="int" name="NELMIN">     8</i>
    <i name="ENINI">    520.00000000</i>
    <separator name="electronic convergence detail" >
     <i type="logical" name="LDIAG"> T  </i>
     <i type="logical" name="LSUBROT"> F  </i>
     <i name="WEIMIN">      0.00100000</i>
     <i name="EBREAK">      0.00000003</i>
     <i name="DEPER">      0.30000000</i>
     <i type="int" name="NRMM">     4</i>
     <i name="TIME">      0.40000000</i>
    </separator>
   </separator>
   <separator name="electronic mixer" >
    <i name="AMIX">      0.40000000</i>
    <i name="BMIX">      1.00000000</i>
    <i name="AMIN">      0.10000000</i>
    <i name="AMIX_MAG">      1.60000000</i>
    <i name="BMIX_MAG">      1.00000000</i>
    <separator name="electronic mixer details" >
     <i type="int" name="IMIX">     4</i>
     <i type="logical" name="MIXFIRST"> F  </i>
     <i type="int" name="MAXMIX">   -45</i>
     <i name="WC">    100.00000000</i>
     <i type="int" name="INIMIX">     1</i>
     <i type="int" name="MIXPRE">     1</i>
     <i type="int" name="MREMOVE">     5</i>
    </separator>
   </separator>
   <separator name="electronic dipolcorrection" >
    <i type="logical" name="LDIPOL"> F  </i>
    <i type="logical" name="LMONO"> F  </i>
    <i type="int" name="IDIPOL">     0</i>
    <i name="EPSILON">      1.00000000</i>
    <v name="DIPOL">   -100.00000000   -100.00000000   -100.00000000</v>
    <i name="EFIELD">      0.00000000</i>
   </separator>
  </separator>
  <separator name="grids" >
   <i type="int" name="NGX">    64</i>
   <i type="int" name="NGY">    64</i>
   <i type="int" name="NGZ">    90</i>
   <i type="int" name="NGXF">   128</i>
   <i type="int" name="NGYF">   128</i>
   <i type="int" name="NGZF">   180</i>
   <i type="logical" name="ADDGRID"> F  </i>
  </separator>
  <separator name="ionic" >
   <i type="int" name="NSW">    30</i>
   <i type="int" name="IBRION">     2</i>
   <i type="int" name="ISIF">     3</i>
   <i name="PSTRESS">      0.00000000</i>
   <i name="EDIFFG">     -0.03000000</i>
   <i type="int" name="NFREE">     1</i>
   <i name="POTIM">      0.50000000</i>
   <i name="SMASS">     -3.00000000</i>
   <i name="SCALEE">      1.00000000</i>
  </separator>
  <separator name="ionic md" >
   <i name="TEBEG">      0.00010000</i>
   <i name="TEEND">      0.00010000</i>
   <i type="int" name="NBLOCK">     1</i>
   <i type="int" name="KBLOCK">    30</i>
   <i type="int" name="NPACO">   256</i>
   <i name="APACO">     16.00000000</i>
  </separator>
  <separator name="symmetry" >
   <i type="int" name="ISYM">     2</i>
   <i name="SYMPREC">      0.00001000</i>
  </separator>
  <separator name="dos" >
   <i type="logical" name="LORBIT"> F  </i>
   <v name="RWIGS">     -1.00000000     -1.00000000     -1.00000000     -1.00000000</v>
   <i type="int" name="NEDOS">   301</i>
   <i name="EMIN">     10.00000000</i>
   <i name="EMAX">    -10.00000000</i>
   <i name="EFERMI">      0.00000000</i>
  </separator>
  <separator name="writing" >
   <i type="int" name="NWRITE">     2</i>
   <i type="logical" name="LWAVE"> T  </i>
   <i type="logical" name="LCHARG"> T  </i>
   <i type="logical" name="LPARD"> F  </i>
   <i type="logical" name="LVTOT"> F  </i>
   <i type="logical" name="LVHAR"> F  </i>
   <i type="logical" name="LELF"> F  </i>
   <i type="logical" name="LOPTICS"> F  </i>
   <v name="STM">      0.00000000      0.00000000      0.00000000      0.00000000      0.00000000      0.00000000      0.00000000</v>
  </separator>
  <separator name="performance" >
   <i type="int" name="NPAR">     2</i>
   <i type="int" name="NSIM">     4</i>
   <i type="int" name="NBLK">    -1</i>
   <i type="logical" name="LPLANE"> T  </i>
   <i type="logical" name="LSCALAPACK"> T  </i>
   <i type="logical" name="LSCAAWARE"> F  </i>
   <i type="logical" name="LSCALU"> F  </i>
   <i type="logical" name="LASYNC"> F  </i>
   <i type="logical" name="LORBITALREAL"> F  </i>
  </separator>
  <separator name="miscellaneous" >
   <i type="int" name="IDIOT">     3</i>
   <i type="logical" name="LMUSIC"> F  </i>
   <v name="POMASS">     87.62000000     47.88000000     55.84700000     16.00000000</v>
   <v name="DARWINR">      0.00000000      0.00000000      0.00000000      0.00000000</v>
   <v name="DARWINV">      1.00000000      1.00000000      1.00000000      1.00000000</v>
   <i type="logical" name="LCORR"> T  </i>
  </separator>
  <i type="logical" name="GGA_COMPAT"> T  </i>
  <i type="logical" name="LBERRY"> F  </i>
  <i type="int" name="ICORELEVEL">     0</i>
  <i type="logical" name="LDAU"> T  </i>
  <v type="int" name="LDAUTYPE">     2</v>
  <v type="int" name="LDAUL">     0</v>
  <v name="LDAUU">      0.00000000</v>
  <v name="LDAUJ">      0.00000000</v>
  <i type="int" name="LDAUPRINT">     1</i>
  <i type="int" name="I_CONSTRAINED_M">     0</i>
  <separator name="electronic exchange-correlation" >
   <i type="string" name="GGA">--</i>
   <i type="int" name="VOSKOWN">     0</i>
   <i type="logical" name="LHFCALC"> F  </i>
   <i type="string" name="PRECFOCK"></i>
   <i type="logical" name="LSYMGRAD"> F  </i>
   <i type="logical" name="LHFONE"> F  </i>
   <i type="logical" name="LRHFCALC"> F  </i>
   <i type="logical" name="LTHOMAS"> F  </i>
   <i type="logical" name="LMODELHF"> F  </i>
   <i name="ENCUT4O">     -1.00000000</i>
   <i type="int" name="EXXOEP">     0</i>
   <i type="int" name="FOURORBIT">     0</i>
   <i name="AEXX">      0.00000000</i>
   <i name="HFALPHA">      0.00000000</i>
   <i name="MCALPHA">      0.00000000</i>
   <i name="ALDAX">      1.00000000</i>
   <i name="AGGAX">      1.00000000</i>
   <i name="ALDAC">      1.00000000</i>
   <i name="AGGAC">      1.00000000</i>
   <i type="int" name="NKREDX">     1</i>
   <i type="int" name="NKREDY">     1</i>
   <i type="int" name="NKREDZ">     1</i>
   <i type="logical" name="SHIFTRED"> F  </i>
   <i type="logical" name="ODDONLY"> F  </i>
   <i type="logical" name="EVENONLY"> F  </i>
   <i type="int" name="LMAXFOCK">     0</i>
   <i type="int" name="NMAXFOCKAE">     0</i>
   <i type="logical" name="LFOCKAEDFT"> F  </i>
   <i name="HFSCREEN">      0.00000000</i>
   <i name="HFSCREENC">      0.00000000</i>
   <i type="int" name="NBANDSGWLOW">     0</i>
  </separator>
  <separator name="vdW DFT" >
   <i type="logical" name="LUSE_VDW"> F  </i>
   <i name="Zab_VDW">     -0.84910000</i>
   <i name="PARAM1">      0.12340000</i>
   <i name="PARAM2">      1.00000000</i>
   <i name="PARAM3">      0.00000000</i>
  </separator>
  <separator name="model GW" >
   <i type="int" name="MODEL_GW">     0</i>
   <i name="MODEL_EPS0">      8.07383791</i>
   <i name="MODEL_ALPHA">      1.00000000</i>
  </separator>
  <separator name="linear response parameters" >
   <i type="logical" name="LEPSILON"> F  </i>
   <i type="logical" name="LRPA"> F  </i>
   <i type="logical" name="LNABLA"> F  </i>
   <i type="logical" name="LVEL"> F  </i>
   <i type="int" name="KINTER">     0</i>
   <i name="CSHIFT">      0.10000000</i>
   <i name="OMEGAMAX">     -1.00000000</i>
   <i name="DEG_THRESHOLD">      0.00200000</i>
  </separator>
  <separator name="orbital magnetization" >
   <i type="logical" name="NUCIND"> F  </i>
   <v name="MAGPOS">      0.00000000      0.00000000      0.00000000</v>
   <i type="logical" name="LNICSALL"> T  </i>
   <i type="logical" name="ORBITALMAG"> F  </i>
   <i type="logical" name="LMAGBLOCH"> F  </i>
   <i type="logical" name="LCHIMAG"> F  </i>
   <i type="logical" name="LGAUGE"> T  </i>
   <i type="int" name="MAGATOM">     0</i>
   <v name="MAGDIPOL">      0.00000000      0.00000000      0.00000000</v>
   <v name="AVECCONST">      0.00000000      0.00000000      0.00000000</v>
  </separator>
  <separator name="response functions" >
   <i type="logical" name="LADDER"> F  </i>
   <i type="logical" name="LFXC"> F  </i>
   <i type="logical" name="LHARTREE"> T  </i>
   <i type="int" name="IBSE">     0</i>
   <v type="int" name="KPOINT">    -1     0     0     0</v>
   <i type="logical" name="LTCTE"> F  </i>
   <i type="logical" name="LTETE"> F  </i>
   <i type="logical" name="LTRIPLET"> F  </i>
   <i type="logical" name="LFXCEPS"> F  </i>
   <i type="logical" name="LFXHEG"> F  </i>
   <i type="int" name="NATURALO">     0</i>
   <i type="logical" name="L2ORDER"> F  </i>
   <i type="logical" name="LUSEW"> F  </i>
   <i name="ENCUTGW">     -2.00000000</i>
   <i name="ENCUTGWSOFT">     -2.00000000</i>
   <i name="ENCUTLF">     -1.00000000</i>
   <i type="int" name="LMAXMP2">    -1</i>
   <i name="SCISSOR">      0.00000000</i>
   <i type="int" name="NOMEGA">     0</i>
   <i type="int" name="NOMEGAR">     0</i>
   <i type="int" name="NBANDSGW">    -1</i>
   <i type="int" name="NBANDSO">    -1</i>
   <i type="int" name="NBANDSV">    -1</i>
   <i type="int" name="NELM">    40</i>
   <i type="int" name="NELMHF">     1</i>
   <i type="int" name="DIM">     3</i>
   <i type="int" name="ANTIRES">     0</i>
   <i name="OMEGAMAX">    -30.00000000</i>
   <i name="OMEGAMIN">    -30.00000000</i>
   <i name="OMEGATL">   -200.00000000</i>
   <i type="int" name="OMEGAGRID">     0</i>
   <i name="CSHIFT">     -0.10000000</i>
   <i type="logical" name="SELFENERGY"> F  </i>
   <i type="logical" name="LSPECTRAL"> F  </i>
   <i type="logical" name="LSPECTRALGW"> F  </i>
   <i type="logical" name="LSINGLES"> F  </i>
   <i type="logical" name="LFERMIGW"> F  </i>
   <i type="logical" name="ODDONLYGW"> F  </i>
   <i type="logical" name="EVENONLYGW"> F  </i>
   <i type="int" name="NKREDLFX">     1</i>
   <i type="int" name="NKREDLFY">     1</i>
   <i type="int" name="NKREDLFZ">     1</i>
   <i type="int" name="MAXMEM">  1800</i>
   <i type="int" name="TELESCOPE">     0</i>
   <i type="int" name="TAUPAR">     1</i>
   <i type="int" name="OMEGAPAR">    -1</i>
   <i name="LAMBDA">      1.00000000</i>
  </separator>
  <separator name="External order field" >
   <i name="OFIELD_KAPPA">      0.00000000</i>
   <v name="OFIELD_K">      0.00000000      0.00000000      0.00000000</v>
   <i name="OFIELD_Q6_NEAR">      0.00000000</i>
   <i name="OFIELD_Q6_FAR">      0.00000000</i>
   <i name="OFIELD_A">      0.00000000</i>
  </separator>
 </parameters>
 <atominfo>
  <atoms>     148 </atoms>
  <types>       4 </types>
  <array name="atoms" >
   <dimension dim="1">ion</dimension>
   <field type="string">element</field>
   <field type="int">atomtype</field>
   <set>
    <rc><c>Sr</c><c>   1</c></rc>
    <rc><c>Sr</c><c>   1</c></rc>
    <rc><c>Sr</c><c>   1</c></rc>
    <rc><c>Sr</c><c>   1</c></rc>
    <rc><c>Sr</c><c>   1</c></rc>
    <rc><c>Sr</c><c>   1</c></rc>
    <rc><c>Sr</c><c>   1</c></rc>
    <rc><c>Sr</c><c>   1</c></rc>
    <rc><c>Sr</c><c>   1</c></rc>
    <rc><c>Sr</c><c>   1</c></rc>
    <rc><c>Sr</c><c>   1</c></rc>
    <rc><c>Sr</c><c>   1</c></rc>
    <rc><c>Sr</c><c>   1</c></rc>
    <rc><c>Sr</c><c>   1</c></rc>
    <rc><c>Sr</c><c>   1</c></rc>
    <rc><c>Sr</c><c>   1</c></rc>
    <rc><c>Sr</c><c>   1</c></rc>
    <rc><c>Sr</c><c>   1</c></rc>
    <rc><c>Sr</c><c>   1</c></rc>
    <rc><c>Sr</c><c>   1</c></rc>
    <rc><c>Sr</c><c>   1</c></rc>
    <rc><c>Sr</c><c>   1</c></rc>
    <rc><c>Sr</c><c>   1</c></rc>
    <rc><c>Sr</c><c>   1</c></rc>
    <rc><c>Sr</c><c>   1</c></rc>
    <rc><c>Sr</c><c>   1</c></rc>
    <rc><c>Sr</c><c>   1</c></rc>
    <rc><c>Sr</c><c>   1</c></rc>
    <rc><c>Sr</c><c>   1</c></rc>
    <rc><c>Sr</c><c>   1</c></rc>
    <rc><c>Sr</c><c>   1</c></rc>
    <rc><c>Sr</c><c>   1</c></rc>
    <rc><c>Ti</c><c>   2</c></rc>
    <rc><c>Ti</c><c>   2</c></rc>
    <rc><c>Ti</c><c>   2</c></rc>
    <rc><c>Ti</c><c>   2</c></rc>
    <rc><c>Ti</c><c>   2</c></rc>
    <rc><c>Ti</c><c>   2</c></rc>
    <rc><c>Ti</c><c>   2</c></rc>
    <rc><c>Ti</c><c>   2</c></rc>
    <rc><c>Fe</c><c>   3</c></rc>
    <rc><c>Fe</c><c>   3</c></rc>
    <rc><c>Fe</c><c>   3</c></rc>
    <rc><c>Fe</c><c>   3</c></rc>
    <rc><c>Fe</c><c>   3</c></rc>
    <rc><c>Fe</c><c>   3</c></rc>
    <rc><c>Fe</c><c>   3</c></rc>
    <rc><c>Fe</c><c>   3</c></rc>
    <rc><c>Fe</c><c>   3</c></rc>
    <rc><c>Fe</c><c>   3</c></rc>
    <rc><c>Fe</c><c>   3</c></rc>
    <rc><c>Fe</c><c>   3</c></rc>
    <rc><c>Fe</c><c>   3</c></rc>
    <rc><c>Fe</c><c>   3</c></rc>
    <rc><c>Fe</c><c>   3</c></rc>
    <rc><c>Fe</c><c>   3</c></rc>
    <rc><c>Fe</c><c>   3</c></rc>
    <rc><c>Fe</c><c>   3</c></rc>
    <rc><c>Fe</c><c>   3</c></rc>
    <rc><c>Fe</c><c>   3</c></rc>
    <rc><c>Fe</c><c>   3</c></rc>
    <rc><c>Fe</c><c>   3</c></rc>
    <rc><c>Fe</c><c>   3</c></rc>
    <rc><c>Fe</c><c>   3</c></rc>
    <rc><c>O </c><c>   4</c></rc>
    <rc><c>O </c><c>   4</c></rc>
    <rc><c>O </c><c>   4</c></rc>
    <rc><c>O </c><c>   4</c></rc>
    <rc><c>O </c><c>   4</c></rc>
    <rc><c>O </c><c>   4</c></rc>
    <rc><c>O </c><c>   4</c></rc>
    <rc><c>O </c><c>   4</c></rc>
    <rc><c>O </c><c>   4</c></rc>
    <rc><c>O </c><c>   4</c></rc>
    <rc><c>O </c><c>   4</c></rc>
    <rc><c>O </c><c>   4</c></rc>
    <rc><c>O </c><c>   4</c></rc>
    <rc><c>O </c><c>   4</c></rc>
    <rc><c>O </c><c>   4</c></rc>
    <rc><c>O </c><c>   4</c></rc>
    <rc><c>O </c><c>   4</c></rc>
    <rc><c>O </c><c>   4</c></rc>
    <rc><c>O </c><c>   4</c></rc>
    <rc><c>O </c><c>   4</c></rc>
    <rc><c>O </c><c>   4</c></rc>
    <rc><c>O </c><c>   4</c></rc>
    <rc><c>O </c><c>   4</c></rc>
    <rc><c>O </c><c>   4</c></rc>
    <rc><c>O </c><c>   4</c></rc>
    <rc><c>O </c><c>   4</c></rc>
    <rc><c>O </c><c>   4</c></rc>
    <rc><c>O </c><c>   4</c></rc>
    <rc><c>O </c><c>   4</c></rc>
    <rc><c>O </c><c>   4</c></rc>
    <rc><c>O </c><c>   4</c></rc>
    <rc><c>O </c><c>   4</c></rc>
    <rc><c>O </c><c>   4</c></rc>
    <rc><c>O </c><c>   4</c></rc>
    <rc><c>O </c><c>   4</c></rc>
    <rc><c>O </c><c>   4</c></rc>
    <rc><c>O </c><c>   4</c></rc>
    <rc><c>O </c><c>   4</c></rc>
    <rc><c>O </c><c>   4</c></rc>
    <rc><c>O </c><c>   4</c></rc>
    <rc><c>O </c><c>   4</c></rc>
    <rc><c>O </c><c>   4</c></rc>
    <rc><c>O </c><c>   4</c></rc>
    <rc><c>O </c><c>   4</c></rc>
    <rc><c>O </c><c>   4</c></rc>
    <rc><c>O </c><c>   4</c></rc>
    <rc><c>O </c><c>   4</c></rc>
    <rc><c>O </c><c>   4</c></rc>
    <rc><c>O </c><c>   4</c></rc>
    <rc><c>O </c><c>   4</c></rc>
    <rc><c>O </c><c>   4</c></rc>
    <rc><c>O </c><c>   4</c></rc>
    <rc><c>O </c><c>   4</c></rc>
    <rc><c>O </c><c>   4</c></rc>
    <rc><c>O </c><c>   4</c></rc>
    <rc><c>O </c><c>   4</c></rc>
    <rc><c>O </c><c>   4</c></rc>
    <rc><c>O </c><c>   4</c></rc>
    <rc><c>O </c><c>   4</c></rc>
    <rc><c>O </c><c>   4</c></rc>
    <rc><c>O </c><c>   4</c></rc>
    <rc><c>O </c><c>   4</c></rc>
    <rc><c>O </c><c>   4</c></rc>
    <rc><c>O </c><c>   4</c></rc>
    <rc><c>O </c><c>   4</c></rc>
    <rc><c>O </c><c>   4</c></rc>
    <rc><c>O </c><c>   4</c></rc>
    <rc><c>O </c><c>   4</c></rc>
    <rc><c>O </c><c>   4</c></rc>
    <rc><c>O </c><c>   4</c></rc>
    <rc><c>O </c><c>   4</c></rc>
    <rc><c>O </c><c>   4</c></rc>
    <rc><c>O </c><c>   4</c></rc>
    <rc><c>O </c><c>   4</c></rc>
    <rc><c>O </c><c>   4</c></rc>
    <rc><c>O </c><c>   4</c></rc>
    <rc><c>O </c><c>   4</c></rc>
    <rc><c>O </c><c>   4</c></rc>
    <rc><c>O </c><c>   4</c></rc>
    <rc><c>O </c><c>   4</c></rc>
    <rc><c>O </c><c>   4</c></rc>
    <rc><c>O </c><c>   4</c></rc>
    <rc><c>O </c><c>   4</c></rc>
    <rc><c>O </c><c>   4</c></rc>
   </set>
  </array>
  <array name="atomtypes" >
   <dimension dim="1">type</dimension>
   <field type="int">atomspertype</field>
   <field type="string">element</field>
   <field>mass</field>
   <field>valence</field>
   <field type="string">pseudopotential</field>
   <set>
    <rc><c>  32</c><c>Sr</c><c>     87.62000000</c><c>     10.00000000</c><c>  PAW_PBE Sr_sv 07Sep2000               </c></rc>
    <rc><c>   8</c><c>Ti</c><c>     47.88000000</c><c>      4.00000000</c><c>  PAW_PBE Ti 08Apr2002                  </c></rc>
    <rc><c>  24</c><c>Fe</c><c>     55.84700000</c><c>      8.00000000</c><c>  PAW_PBE Fe 06Sep2000                  </c></rc>
    <rc><c>  84</c><c>O </c><c>     16.00000000</c><c>      6.00000000</c><c>  PAW_PBE O 08Apr2002                   </c></rc>
   </set>
  </array>
 </atominfo>
 <structure name="initialpos" >
  <crystal>
   <varray name="basis" >
    <v>      11.23526137      -0.00520528      -0.03219348 </v>
    <v>      -0.00520126      11.25641478       0.00066964 </v>
    <v>      -0.04685866       0.00113527      15.74747839 </v>
   </varray>
   <i name="volume">   1991.54668423 </i>
   <varray name="rec_basis" >
    <v>       0.08900627       0.00004111       0.00026485 </v>
    <v>       0.00004114       0.08883825      -0.00000628 </v>
    <v>       0.00018196      -0.00000369       0.06350277 </v>
   </varray>
  </crystal>
  <varray name="positions" >
   <v>       0.01354231       0.24514792       0.11954681 </v>
   <v>       0.99399901       0.24491415       0.62211273 </v>
   <v>       0.01468218       0.75342033       0.11586405 </v>
   <v>       0.00082210       0.76311841       0.62147781 </v>
   <v>       0.48484891       0.24050264       0.11492940 </v>
   <v>       0.50005058       0.24894220       0.63267089 </v>
   <v>       0.47632221       0.75489083       0.12204602 </v>
   <v>       0.50242202       0.74548142       0.62181988 </v>
   <v>       0.99887068       0.25301967       0.37714996 </v>
   <v>       0.99786567       0.24821545       0.88077771 </v>
   <v>       0.00697814       0.75074347       0.38450544 </v>
   <v>       0.00279328       0.76153245       0.87824849 </v>
   <v>       0.49480292       0.24748424       0.37692074 </v>
   <v>       0.50297606       0.25713387       0.87381391 </v>
   <v>       0.49993385       0.75170454       0.38228596 </v>
   <v>       0.50193186       0.74588281       0.88021791 </v>
   <v>       0.24534846       0.00135237       0.11677993 </v>
   <v>       0.24310558       0.01162372       0.62418376 </v>
   <v>       0.24299820       0.49867321       0.11899734 </v>
   <v>       0.26620285       0.49107060       0.62198761 </v>
   <v>       0.75475926       0.00311957       0.11776512 </v>
   <v>       0.74462191       0.00620478       0.62498455 </v>
   <v>       0.76134839       0.47963769       0.12400982 </v>
   <v>       0.73796519       0.49258048       0.62560927 </v>
   <v>       0.24065546       0.00620994       0.37446795 </v>
   <v>       0.24808795       0.00046715       0.88195220 </v>
   <v>       0.23969164       0.50425086       0.38030091 </v>
   <v>       0.26086838       0.50003496       0.88412469 </v>
   <v>       0.75190831       0.99853902       0.38618370 </v>
   <v>       0.74741235       0.01346121       0.87035264 </v>
   <v>       0.76174209       0.50105671       0.38458035 </v>
   <v>       0.74567159       0.49024090       0.87644106 </v>
   <v>       0.00077372       0.99791845       0.49633078 </v>
   <v>       0.00202412       0.49960269       0.50410304 </v>
   <v>       0.49386917       0.00052505       0.49985213 </v>
   <v>       0.74872496       0.24848526       0.00109846 </v>
   <v>       0.24239858       0.73629600       0.75173945 </v>
   <v>       0.99455297       0.00487134       0.74965911 </v>
   <v>       0.00632723       0.50071706       0.25091271 </v>
   <v>       0.98261142       0.50941613       0.74737131 </v>
   <v>       0.00214337       0.00403366       0.00147947 </v>
   <v>       0.99968852       0.50099435       0.00029939 </v>
   <v>       0.49492541       0.00028694       0.99692833 </v>
   <v>       0.49433399       0.49349535       0.00345327 </v>
   <v>       0.49053023       0.50983521       0.49274046 </v>
   <v>       0.24498063       0.25077103       0.99390469 </v>
   <v>       0.24976442       0.25171696       0.50816421 </v>
   <v>       0.25113421       0.75237209       0.99672202 </v>
   <v>       0.25260994       0.75675385       0.51285663 </v>
   <v>       0.75456952       0.24123711       0.49872966 </v>
   <v>       0.76489953       0.75930888       0.99255682 </v>
   <v>       0.74668961       0.74971849       0.49211637 </v>
   <v>       0.24650075       0.24868735       0.24020624 </v>
   <v>       0.26066890       0.23723455       0.75436819 </v>
   <v>       0.24609856       0.75006307       0.24287707 </v>
   <v>       0.77507306       0.24397808       0.25225415 </v>
   <v>       0.74927886       0.25398508       0.74670431 </v>
   <v>       0.79442680       0.74286274       0.26223675 </v>
   <v>       0.74277720       0.75308240       0.75458274 </v>
   <v>       0.00133301       0.99642002       0.24857811 </v>
   <v>       0.47116719       0.99795641       0.25422018 </v>
   <v>       0.51020489       0.00602226       0.75083850 </v>
   <v>       0.47614102       0.50380834       0.25224663 </v>
   <v>       0.50525718       0.50200542       0.74904213 </v>
   <v>       0.11692078       0.14063248       0.27183420 </v>
   <v>       0.11081853       0.13847255       0.75076008 </v>
   <v>       0.11194513       0.63982829       0.26877720 </v>
   <v>       0.13452849       0.60918993       0.75362004 </v>
   <v>       0.61749729       0.13302470       0.75238169 </v>
   <v>       0.63044261       0.62903533       0.72698388 </v>
   <v>       0.39183408       0.36340722       0.24186260 </v>
   <v>       0.37317882       0.37925712       0.75304110 </v>
   <v>       0.39826539       0.84621055       0.25673660 </v>
   <v>       0.89863253       0.35457198       0.24365224 </v>
   <v>       0.89064506       0.36681752       0.74392333 </v>
   <v>       0.87718558       0.86529855       0.21387890 </v>
   <v>       0.87132033       0.86871360       0.73517946 </v>
   <v>       0.36985614       0.13628552       0.27225924 </v>
   <v>       0.36221068       0.10128620       0.75862123 </v>
   <v>       0.36114654       0.62164899       0.27250793 </v>
   <v>       0.38323967       0.63751189       0.74176260 </v>
   <v>       0.84473266       0.09585271       0.25557259 </v>
   <v>       0.86452666       0.11915346       0.73838098 </v>
   <v>       0.84405650       0.58630368       0.24784920 </v>
   <v>       0.87328106       0.62726096       0.72507164 </v>
   <v>       0.14292535       0.38824060       0.26097112 </v>
   <v>       0.14239518       0.88068385       0.26308113 </v>
   <v>       0.12821554       0.87414066       0.75447761 </v>
   <v>       0.63130913       0.38140994       0.75708868 </v>
   <v>       0.61999316       0.87221184       0.73103519 </v>
   <v>       0.37382265       0.37875585       0.00925995 </v>
   <v>       0.37462846       0.37195920       0.47631825 </v>
   <v>       0.37212053       0.87966115       0.00896057 </v>
   <v>       0.37045636       0.87532139       0.47710962 </v>
   <v>       0.87528476       0.37003621       0.01199042 </v>
   <v>       0.86531551       0.38064990       0.50137501 </v>
   <v>       0.87984286       0.87626202       0.00741453 </v>
   <v>       0.86756050       0.87260917       0.51276236 </v>
   <v>       0.12439326       0.12481374       0.98664683 </v>
   <v>       0.12390715       0.12515488       0.48746152 </v>
   <v>       0.12429628       0.63057302       0.98547423 </v>
   <v>       0.13094069       0.62742132       0.49979803 </v>
   <v>       0.62741014       0.11613645       0.99641912 </v>
   <v>       0.61625427       0.13007976       0.50018103 </v>
   <v>       0.63443042       0.61755161       0.50821455 </v>
   <v>       0.12337652       0.38016592       0.00246359 </v>
   <v>       0.12477218       0.36987135       0.48532287 </v>
   <v>       0.12613791       0.87499966       0.99309150 </v>
   <v>       0.12533202       0.87058116       0.49185465 </v>
   <v>       0.62741831       0.38145506       0.00124319 </v>
   <v>       0.62695324       0.83566997       0.02680928 </v>
   <v>       0.62205424       0.87193397       0.51384307 </v>
   <v>       0.37753905       0.12932235       0.98761361 </v>
   <v>       0.36843749       0.12561989       0.48624550 </v>
   <v>       0.38577289       0.62894442       0.00448169 </v>
   <v>       0.37348733       0.63215196       0.48909180 </v>
   <v>       0.87256422       0.12784247       0.01284849 </v>
   <v>       0.87417099       0.12448080       0.49693243 </v>
   <v>       0.85089600       0.62019635       0.01823718 </v>
   <v>       0.87981106       0.62921433       0.51343347 </v>
   <v>       0.02443189       0.01419148       0.12732721 </v>
   <v>       0.01277862       0.00069894       0.62122321 </v>
   <v>       0.01735275       0.51440495       0.12952130 </v>
   <v>       0.03288258       0.47641705       0.62894928 </v>
   <v>       0.50092317       0.01091394       0.13757197 </v>
   <v>       0.47313429       0.99797163       0.62265448 </v>
   <v>       0.54198804       0.53480212       0.14104296 </v>
   <v>       0.50064147       0.47333250       0.61191074 </v>
   <v>       0.98034834       0.97863972       0.37491529 </v>
   <v>       0.97940377       0.99897200       0.87152054 </v>
   <v>       0.99054128       0.50466253       0.37919655 </v>
   <v>       0.98351277       0.50327242       0.87025768 </v>
   <v>       0.52745415       0.99593832       0.36745361 </v>
   <v>       0.50815896       0.96886718       0.87317414 </v>
   <v>       0.54222326       0.49424323       0.36599954 </v>
   <v>       0.51530450       0.51950070       0.88081400 </v>
   <v>       0.23245664       0.27750877       0.86932168 </v>
   <v>       0.27576201       0.76458640       0.86811743 </v>
   <v>       0.72059397       0.26829897       0.36852250 </v>
   <v>       0.75877383       0.24917488       0.87870747 </v>
   <v>       0.72623236       0.76118920       0.37049242 </v>
   <v>       0.74330244       0.73573502       0.87436849 </v>
   <v>       0.24323706       0.23287723       0.12195134 </v>
   <v>       0.24572356       0.25873704       0.62842938 </v>
   <v>       0.24291449       0.73860294       0.12457166 </v>
   <v>       0.26734066       0.77936009       0.63158674 </v>
   <v>       0.70908517       0.25036094       0.14171898 </v>
   <v>       0.72929944       0.26373522       0.61818866 </v>
  </varray>
 </structure>
 <calculation>
  <scstep>
   <time name="dav">  580.20  580.21</time>
   <time name="total">  587.50  587.54</time>
   <energy>
    <i name="alphaZ">   5642.55769818 </i>
    <i name="ewald"> -63050.53653062 </i>
    <i name="hartreedc"> -18702.78325509 </i>
    <i name="XCdc">   3405.80687287 </i>
    <i name="pawpsdc"> 117232.00741255 </i>
    <i name="pawaedc">-116736.09405866 </i>
    <i name="eentropy">     -0.00656336 </i>
    <i name="bandstr">  -7097.90520159 </i>
    <i name="atom">  78316.90445604 </i>
    <i name="e_fr_energy">   -990.04916968 </i>
    <i name="e_wo_entrp">   -990.04260632 </i>
    <i name="e_0_energy">   -990.04588800 </i>
   </energy>
  </scstep>
  <scstep>
   <time name="diag">   64.60   64.61</time>
   <time name="diis">   60.70   60.70</time>
   <time name="orth">   33.03   33.03</time>
   <time name="total">  165.66  165.68</time>
   <energy>
    <i name="e_fr_energy">   -990.04916967 </i>
    <i name="e_wo_entrp">   -990.04260577 </i>
    <i name="e_0_energy">   -990.04588772 </i>
   </energy>
  </scstep>
  <scstep>
   <time name="diag">   64.68   64.68</time>
   <time name="diis">   55.89   55.95</time>
   <time name="orth">   33.09   33.10</time>
   <time name="total">  161.01  161.10</time>
   <energy>
    <i name="e_fr_energy">   -990.04916978 </i>
    <i name="e_wo_entrp">   -990.04260606 </i>
    <i name="e_0_energy">   -990.04588792 </i>
   </energy>
  </scstep>
  <scstep>
   <time name="diag">   64.63   64.68</time>
   <time name="diis">   45.05   45.09</time>
   <time name="orth">   33.03   33.05</time>
   <time name="total">  150.06  150.22</time>
   <energy>
    <i name="e_fr_energy">   -990.04916986 </i>
    <i name="e_wo_entrp">   -990.04260506 </i>
    <i name="e_0_energy">   -990.04588746 </i>
   </energy>
  </scstep>
  <scstep>
   <time name="diag">   64.61   64.63</time>
   <time name="diis">   43.47   43.50</time>
   <time name="orth">   33.06   33.06</time>
   <time name="total">  148.50  148.59</time>
   <energy>
    <i name="e_fr_energy">   -990.04916993 </i>
    <i name="e_wo_entrp">   -990.04260443 </i>
    <i name="e_0_energy">   -990.04588718 </i>
   </energy>
  </scstep>
  <scstep>
   <time name="diag">   64.56   64.58</time>
   <time name="diis">   42.17   42.20</time>
   <time name="orth">   33.01   33.01</time>
   <time name="total">  147.10  147.20</time>
   <energy>
    <i name="e_fr_energy">   -990.04917001 </i>
    <i name="e_wo_entrp">   -990.04260404 </i>
    <i name="e_0_energy">   -990.04588702 </i>
   </energy>
  </scstep>
  <scstep>
   <time name="diag">   64.53   64.54</time>
   <time name="diis">   42.14   42.17</time>
   <time name="orth">   33.07   33.09</time>
   <time name="total">  147.03  147.11</time>
   <energy>
    <i name="e_fr_energy">   -990.04917006 </i>
    <i name="e_wo_entrp">   -990.04260427 </i>
    <i name="e_0_energy">   -990.04588717 </i>
   </energy>
  </scstep>
  <scstep>
   <time name="diag">   64.55   64.60</time>
   <time name="diis">   41.66   41.69</time>
   <time name="orth">   33.11   33.10</time>
   <time name="total">  140.38  140.51</time>
   <energy>
    <i name="alphaZ">   5642.55769818 </i>
    <i name="ewald"> -63050.53653062 </i>
    <i name="hartreedc"> -18702.79131347 </i>
    <i name="XCdc">   3405.80699286 </i>
    <i name="pawpsdc"> 117231.33869327 </i>
    <i name="pawaedc">-116735.42745078 </i>
    <i name="eentropy">     -0.00656583 </i>
    <i name="bandstr">  -7097.89514978 </i>
    <i name="atom">  78316.90445604 </i>
    <i name="e_fr_energy">   -990.04917012 </i>
    <i name="e_wo_entrp">   -990.04260429 </i>
    <i name="e_0_energy">   -990.04588721 </i>
   </energy>
  </scstep>
  <structure>
   <crystal>
    <varray name="basis" >
     <v>      11.23526137      -0.00520528      -0.03219348 </v>
     <v>      -0.00520126      11.25641478       0.00066964 </v>
     <v>      -0.04685866       0.00113527      15.74747839 </v>
    </varray>
    <i name="volume">   1991.54668423 </i>
    <varray name="rec_basis" >
     <v>       0.08900627       0.00004111       0.00026485 </v>
     <v>       0.00004114       0.08883825      -0.00000628 </v>
     <v>       0.00018196      -0.00000369       0.06350277 </v>
    </varray>
   </crystal>
   <varray name="positions" >
    <v>       0.01354231       0.24514792       0.11954681 </v>
    <v>       0.99399901       0.24491415       0.62211273 </v>
    <v>       0.01468218       0.75342033       0.11586405 </v>
    <v>       0.00082210       0.76311841       0.62147781 </v>
    <v>       0.48484891       0.24050264       0.11492940 </v>
    <v>       0.50005058       0.24894220       0.63267089 </v>
    <v>       0.47632221       0.75489083       0.12204602 </v>
    <v>       0.50242202       0.74548142       0.62181988 </v>
    <v>       0.99887068       0.25301967       0.37714996 </v>
    <v>       0.99786567       0.24821545       0.88077771 </v>
    <v>       0.00697814       0.75074347       0.38450544 </v>
    <v>       0.00279328       0.76153245       0.87824849 </v>
    <v>       0.49480292       0.24748424       0.37692074 </v>
    <v>       0.50297606       0.25713387       0.87381391 </v>
    <v>       0.49993385       0.75170454       0.38228596 </v>
    <v>       0.50193186       0.74588281       0.88021791 </v>
    <v>       0.24534846       0.00135237       0.11677993 </v>
    <v>       0.24310558       0.01162372       0.62418376 </v>
    <v>       0.24299820       0.49867321       0.11899734 </v>
    <v>       0.26620285       0.49107060       0.62198761 </v>
    <v>       0.75475926       0.00311957       0.11776512 </v>
    <v>       0.74462191       0.00620478       0.62498455 </v>
    <v>       0.76134839       0.47963769       0.12400982 </v>
    <v>       0.73796519       0.49258048       0.62560927 </v>
    <v>       0.24065546       0.00620994       0.37446795 </v>
    <v>       0.24808795       0.00046715       0.88195220 </v>
    <v>       0.23969164       0.50425086       0.38030091 </v>
    <v>       0.26086838       0.50003496       0.88412469 </v>
    <v>       0.75190831       0.99853902       0.38618370 </v>
    <v>       0.74741235       0.01346121       0.87035264 </v>
    <v>       0.76174209       0.50105671       0.38458035 </v>
    <v>       0.74567159       0.49024090       0.87644106 </v>
    <v>       0.00077372       0.99791845       0.49633078 </v>
    <v>       0.00202412       0.49960269       0.50410304 </v>
    <v>       0.49386917       0.00052505       0.49985213 </v>
    <v>       0.74872496       0.24848526       0.00109846 </v>
    <v>       0.24239858       0.73629600       0.75173945 </v>
    <v>       0.99455297       0.00487134       0.74965911 </v>
    <v>       0.00632723       0.50071706       0.25091271 </v>
    <v>       0.98261142       0.50941613       0.74737131 </v>
    <v>       0.00214337       0.00403366       0.00147947 </v>
    <v>       0.99968852       0.50099435       0.00029939 </v>
    <v>       0.49492541       0.00028694       0.99692833 </v>
    <v>       0.49433399       0.49349535       0.00345327 </v>
    <v>       0.49053023       0.50983521       0.49274046 </v>
    <v>       0.24498063       0.25077103       0.99390469 </v>
    <v>       0.24976442       0.25171696       0.50816421 </v>
    <v>       0.25113421       0.75237209       0.99672202 </v>
    <v>       0.25260994       0.75675385       0.51285663 </v>
    <v>       0.75456952       0.24123711       0.49872966 </v>
    <v>       0.76489953       0.75930888       0.99255682 </v>
    <v>       0.74668961       0.74971849       0.49211637 </v>
    <v>       0.24650075       0.24868735       0.24020624 </v>
    <v>       0.26066890       0.23723455       0.75436819 </v>
    <v>       0.24609856       0.75006307       0.24287707 </v>
    <v>       0.77507306       0.24397808       0.25225415 </v>
    <v>       0.74927886       0.25398508       0.74670431 </v>
    <v>       0.79442680       0.74286274       0.26223675 </v>
    <v>       0.74277720       0.75308240       0.75458274 </v>
    <v>       0.00133301       0.99642002       0.24857811 </v>
    <v>       0.47116719       0.99795641       0.25422018 </v>
    <v>       0.51020489       0.00602226       0.75083850 </v>
    <v>       0.47614102       0.50380834       0.25224663 </v>
    <v>       0.50525718       0.50200542       0.74904213 </v>
    <v>       0.11692078       0.14063248       0.27183420 </v>
    <v>       0.11081853       0.13847255       0.75076008 </v>
    <v>       0.11194513       0.63982829       0.26877720 </v>
    <v>       0.13452849       0.60918993       0.75362004 </v>
    <v>       0.61749729       0.13302470       0.75238169 </v>
    <v>       0.63044261       0.62903533       0.72698388 </v>
    <v>       0.39183408       0.36340722       0.24186260 </v>
    <v>       0.37317882       0.37925712       0.75304110 </v>
    <v>       0.39826539       0.84621055       0.25673660 </v>
    <v>       0.89863253       0.35457198       0.24365224 </v>
    <v>       0.89064506       0.36681752       0.74392333 </v>
    <v>       0.87718558       0.86529855       0.21387890 </v>
    <v>       0.87132033       0.86871360       0.73517946 </v>
    <v>       0.36985614       0.13628552       0.27225924 </v>
    <v>       0.36221068       0.10128620       0.75862123 </v>
    <v>       0.36114654       0.62164899       0.27250793 </v>
    <v>       0.38323967       0.63751189       0.74176260 </v>
    <v>       0.84473266       0.09585271       0.25557259 </v>
    <v>       0.86452666       0.11915346       0.73838098 </v>
    <v>       0.84405650       0.58630368       0.24784920 </v>
    <v>       0.87328106       0.62726096       0.72507164 </v>
    <v>       0.14292535       0.38824060       0.26097112 </v>
    <v>       0.14239518       0.88068385       0.26308113 </v>
    <v>       0.12821554       0.87414066       0.75447761 </v>
    <v>       0.63130913       0.38140994       0.75708868 </v>
    <v>       0.61999316       0.87221184       0.73103519 </v>
    <v>       0.37382265       0.37875585       0.00925995 </v>
    <v>       0.37462846       0.37195920       0.47631825 </v>
    <v>       0.37212053       0.87966115       0.00896057 </v>
    <v>       0.37045636       0.87532139       0.47710962 </v>
    <v>       0.87528476       0.37003621       0.01199042 </v>
    <v>       0.86531551       0.38064990       0.50137501 </v>
    <v>       0.87984286       0.87626202       0.00741453 </v>
    <v>       0.86756050       0.87260917       0.51276236 </v>
    <v>       0.12439326       0.12481374       0.98664683 </v>
    <v>       0.12390715       0.12515488       0.48746152 </v>
    <v>       0.12429628       0.63057302       0.98547423 </v>
    <v>       0.13094069       0.62742132       0.49979803 </v>
    <v>       0.62741014       0.11613645       0.99641912 </v>
    <v>       0.61625427       0.13007976       0.50018103 </v>
    <v>       0.63443042       0.61755161       0.50821455 </v>
    <v>       0.12337652       0.38016592       0.00246359 </v>
    <v>       0.12477218       0.36987135       0.48532287 </v>
    <v>       0.12613791       0.87499966       0.99309150 </v>
    <v>       0.12533202       0.87058116       0.49185465 </v>
    <v>       0.62741831       0.38145506       0.00124319 </v>
    <v>       0.62695324       0.83566997       0.02680928 </v>
    <v>       0.62205424       0.87193397       0.51384307 </v>
    <v>       0.37753905       0.12932235       0.98761361 </v>
    <v>       0.36843749       0.12561989       0.48624550 </v>
    <v>       0.38577289       0.62894442       0.00448169 </v>
    <v>       0.37348733       0.63215196       0.48909180 </v>
    <v>       0.87256422       0.12784247       0.01284849 </v>
    <v>       0.87417099       0.12448080       0.49693243 </v>
    <v>       0.85089600       0.62019635       0.01823718 </v>
    <v>       0.87981106       0.62921433       0.51343347 </v>
    <v>       0.02443189       0.01419148       0.12732721 </v>
    <v>       0.01277862       0.00069894       0.62122321 </v>
    <v>       0.01735275       0.51440495       0.12952130 </v>
    <v>       0.03288258       0.47641705       0.62894928 </v>
    <v>       0.50092317       0.01091394       0.13757197 </v>
    <v>       0.47313429       0.99797163       0.62265448 </v>
    <v>       0.54198804       0.53480212       0.14104296 </v>
    <v>       0.50064147       0.47333250       0.61191074 </v>
    <v>       0.98034834       0.97863972       0.37491529 </v>
    <v>       0.97940377       0.99897200       0.87152054 </v>
    <v>       0.99054128       0.50466253       0.37919655 </v>
    <v>       0.98351277       0.50327242       0.87025768 </v>
    <v>       0.52745415       0.99593832       0.36745361 </v>
    <v>       0.50815896       0.96886718       0.87317414 </v>
    <v>       0.54222326       0.49424323       0.36599954 </v>
    <v>       0.51530450       0.51950070       0.88081400 </v>
    <v>       0.23245664       0.27750877       0.86932168 </v>
    <v>       0.27576201       0.76458640       0.86811743 </v>
    <v>       0.72059397       0.26829897       0.36852250 </v>
    <v>       0.75877383       0.24917488       0.87870747 </v>
    <v>       0.72623236       0.76118920       0.37049242 </v>
    <v>       0.74330244       0.73573502       0.87436849 </v>
    <v>       0.24323706       0.23287723       0.12195134 </v>
    <v>       0.24572356       0.25873704       0.62842938 </v>
    <v>       0.24291449       0.73860294       0.12457166 </v>
    <v>       0.26734066       0.77936009       0.63158674 </v>
    <v>       0.70908517       0.25036094       0.14171898 </v>
    <v>       0.72929944       0.26373522       0.61818866 </v>
   </varray>
  </structure>
  <varray name="forces" >
   <v>      -0.00380067      -0.00024973       0.00098011 </v>
   <v>      -0.00076905      -0.00716440      -0.00768601 </v>
   <v>      -0.00257166       0.00136232       0.00776068 </v>
   <v>      -0.00292727      -0.00178517      -0.00085575 </v>
   <v>      -0.00389110      -0.00630515      -0.00435142 </v>
   <v>       0.00357242      -0.00074791       0.00130389 </v>
   <v>      -0.00261355      -0.00294468       0.00584649 </v>
   <v>       0.00078163      -0.00962735      -0.00011222 </v>
   <v>      -0.00576521       0.00298596      -0.00001684 </v>
   <v>       0.00277551      -0.00695888       0.00981494 </v>
   <v>      -0.00533962      -0.00621407       0.00036032 </v>
   <v>      -0.00619099       0.00772972       0.00205283 </v>
   <v>       0.00044697       0.00279720       0.00295064 </v>
   <v>      -0.00057973      -0.00827809      -0.00028717 </v>
   <v>       0.00277008      -0.00477862       0.00030546 </v>
   <v>       0.00167064       0.00476290      -0.00067758 </v>
   <v>      -0.00041942       0.00143964       0.00299184 </v>
   <v>       0.00255353       0.00105568      -0.00237057 </v>
   <v>       0.00001598       0.00042320       0.00103088 </v>
   <v>       0.00510951       0.00287853      -0.00114827 </v>
   <v>      -0.00503776       0.00230775       0.00276562 </v>
   <v>      -0.00120306       0.00480986      -0.00257126 </v>
   <v>       0.00600068      -0.01403947       0.00038612 </v>
   <v>      -0.00086272       0.00249429       0.00361126 </v>
   <v>       0.00251524      -0.00655460       0.00219423 </v>
   <v>      -0.00562379       0.00274827       0.00183774 </v>
   <v>      -0.00487331       0.00609114      -0.00213600 </v>
   <v>      -0.00416050      -0.00632681       0.00634413 </v>
   <v>      -0.00075142      -0.00933654       0.00835700 </v>
   <v>      -0.00406156      -0.00129260      -0.00042555 </v>
   <v>       0.01033616      -0.00226013       0.00020937 </v>
   <v>       0.00317533       0.00641111      -0.00590438 </v>
   <v>      -0.01580881      -0.00295821      -0.00403119 </v>
   <v>      -0.01697755       0.01142450      -0.06219913 </v>
   <v>       0.00262153       0.00340371       0.00096903 </v>
   <v>      -0.00875083      -0.00207204       0.01019190 </v>
   <v>       0.00412346       0.00540542      -0.00121350 </v>
   <v>       0.00635406      -0.02602229      -0.00279417 </v>
   <v>      -0.00919666      -0.00276416       0.00725683 </v>
   <v>      -0.01749843       0.03308023       0.00160119 </v>
   <v>       0.00981210      -0.00106966       0.00164714 </v>
   <v>       0.00592201      -0.00263494       0.00110818 </v>
   <v>       0.00270950       0.00253296       0.00103278 </v>
   <v>      -0.00111169      -0.00241183      -0.00374761 </v>
   <v>      -0.00274858       0.01582950       0.00085955 </v>
   <v>       0.00340465      -0.00634584      -0.00613071 </v>
   <v>      -0.00286819      -0.00130629       0.00308321 </v>
   <v>       0.00019425      -0.00022268       0.00701698 </v>
   <v>      -0.00011222      -0.00074521       0.00179223 </v>
   <v>       0.00267533       0.00487447      -0.00535730 </v>
   <v>      -0.00082496       0.00075909      -0.01341477 </v>
   <v>       0.00459782       0.00431157      -0.01817573 </v>
   <v>      -0.00304102      -0.00206815       0.00527827 </v>
   <v>       0.00691636      -0.00450540       0.00244352 </v>
   <v>      -0.00877673      -0.00418877      -0.00171997 </v>
   <v>      -0.00455119       0.00911436       0.00375602 </v>
   <v>      -0.00989272      -0.00127441      -0.00145904 </v>
   <v>      -0.00744747      -0.00660966       0.01051157 </v>
   <v>       0.00647634      -0.00109744       0.00641162 </v>
   <v>      -0.00394000       0.00038071       0.00608020 </v>
   <v>       0.00048351      -0.00563783      -0.00177473 </v>
   <v>       0.00549847      -0.00363186       0.00512072 </v>
   <v>      -0.00730105       0.00213287       0.00824257 </v>
   <v>       0.00215123       0.00137988       0.00053009 </v>
   <v>       0.00260957       0.00575200      -0.00498484 </v>
   <v>       0.00713460      -0.00318699       0.00258235 </v>
   <v>       0.00314851       0.00959743      -0.00644128 </v>
   <v>       0.00418285      -0.01860558      -0.00317455 </v>
   <v>       0.00817892      -0.00874541      -0.00212352 </v>
   <v>      -0.00792347      -0.00463564       0.00223001 </v>
   <v>       0.00031358       0.00042803       0.00670509 </v>
   <v>      -0.00520609      -0.00182152       0.00145662 </v>
   <v>      -0.00674265      -0.00493697      -0.00399554 </v>
   <v>      -0.00070092       0.00185648      -0.00157833 </v>
   <v>       0.00194739      -0.00879340       0.00092465 </v>
   <v>       0.00405863       0.00131698       0.00269035 </v>
   <v>      -0.00318938      -0.00054488      -0.00109316 </v>
   <v>      -0.00124380       0.00793270      -0.00380265 </v>
   <v>      -0.00308947       0.00888227      -0.00620469 </v>
   <v>      -0.00061722       0.00345086      -0.00016039 </v>
   <v>      -0.00538742      -0.00227916      -0.00169492 </v>
   <v>       0.00699879      -0.00406778      -0.00070609 </v>
   <v>       0.00216068       0.02067899      -0.00053405 </v>
   <v>      -0.00122313       0.01440148       0.00193468 </v>
   <v>       0.02989944      -0.02059807       0.00949260 </v>
   <v>       0.01273729      -0.00857181      -0.00392144 </v>
   <v>       0.00413436       0.00055185       0.00657096 </v>
   <v>       0.00530715      -0.00381236      -0.00235668 </v>
   <v>       0.00586389       0.00178075      -0.00283037 </v>
   <v>      -0.01173563       0.00371999       0.00512511 </v>
   <v>       0.00755843      -0.00043403      -0.01024091 </v>
   <v>      -0.00355071      -0.00155014       0.00191153 </v>
   <v>       0.00292641       0.00400052      -0.00553483 </v>
   <v>      -0.00248616      -0.00016989      -0.00241948 </v>
   <v>      -0.00984315       0.00644919      -0.00419936 </v>
   <v>       0.00229026      -0.00253135       0.00325212 </v>
   <v>      -0.00299098      -0.01134956       0.01079758 </v>
   <v>       0.00186906      -0.00352283      -0.00236812 </v>
   <v>      -0.00544231       0.01302175      -0.00244613 </v>
   <v>       0.00434548       0.00529966      -0.00415249 </v>
   <v>      -0.00791885      -0.00909379      -0.00422609 </v>
   <v>       0.00472756       0.00237340      -0.00282672 </v>
   <v>      -0.00094879       0.00004502      -0.00417948 </v>
   <v>      -0.00710779      -0.00232574       0.00279464 </v>
   <v>      -0.00443703      -0.00135828       0.00439492 </v>
   <v>       0.00771825      -0.00126649       0.00180982 </v>
   <v>       0.01003519      -0.00166684       0.01098281 </v>
   <v>      -0.00026150       0.00349021       0.00383284 </v>
   <v>       0.00873196      -0.00341122       0.00181631 </v>
   <v>       0.00291035       0.00670147      -0.00008291 </v>
   <v>       0.00300223      -0.00794733       0.00516871 </v>
   <v>      -0.00307671       0.00017918      -0.00013534 </v>
   <v>      -0.00598664       0.00366990       0.00214772 </v>
   <v>      -0.00203829       0.00749479       0.00502864 </v>
   <v>      -0.00084799      -0.00071594       0.00217739 </v>
   <v>      -0.00061455       0.00320156      -0.00359211 </v>
   <v>      -0.00297152      -0.00327740       0.00652179 </v>
   <v>       0.00777107      -0.00344703      -0.00339263 </v>
   <v>       0.00495426       0.00658217      -0.01241250 </v>
   <v>      -0.00481797      -0.00209742       0.00567090 </v>
   <v>       0.00035510       0.00807155      -0.00843674 </v>
   <v>       0.00362643       0.00855510       0.00481278 </v>
   <v>      -0.00104946       0.00000586      -0.01666167 </v>
   <v>       0.00252559       0.00167425       0.00684146 </v>
   <v>      -0.00539973       0.00248649      -0.00258680 </v>
   <v>       0.00533703      -0.00359480       0.00506042 </v>
   <v>      -0.00332423       0.00037247      -0.00398565 </v>
   <v>       0.00418905      -0.00121907       0.00377046 </v>
   <v>       0.00696535       0.00173505      -0.00332570 </v>
   <v>      -0.00251300       0.00127954      -0.00235037 </v>
   <v>       0.00811570       0.00201116       0.00978894 </v>
   <v>       0.00245283      -0.01365212      -0.00142980 </v>
   <v>      -0.00319730      -0.00190523      -0.00346965 </v>
   <v>      -0.00502412       0.00595503       0.00139697 </v>
   <v>      -0.01364860       0.01006681       0.00177350 </v>
   <v>       0.00636785      -0.00102709       0.00058229 </v>
   <v>      -0.00206585      -0.00161572      -0.00504289 </v>
   <v>       0.00217824       0.00552494       0.00494328 </v>
   <v>      -0.00724642      -0.00050690       0.00643839 </v>
   <v>      -0.00493393       0.00440017      -0.00768328 </v>
   <v>       0.00947234      -0.00263074      -0.00459633 </v>
   <v>       0.00988590       0.01091744       0.00561116 </v>
   <v>      -0.00220320      -0.00425995       0.00641744 </v>
   <v>      -0.00050037      -0.00044390       0.00014451 </v>
   <v>       0.00212447       0.00317594      -0.00224339 </v>
   <v>       0.00544638      -0.00424424       0.00178468 </v>
   <v>       0.00378601       0.00471449       0.00146436 </v>
   <v>      -0.00021189      -0.00443630       0.00529681 </v>
  </varray>
  <varray name="stress" >
   <v>      -0.03626160       0.06087370       0.00888974 </v>
   <v>       0.06087352      -0.01699859      -0.01887105 </v>
   <v>       0.00889051      -0.01887102       0.01967632 </v>
  </varray>
  <energy>
   <i name="e_fr_energy">   -990.04917012 </i>
   <i name="e_wo_entrp">   -990.04588721 </i>
   <i name="e_0_energy">     -0.00656583 </i>
  </energy>
  <time name="totalsc"> 1908.27 1910.56</time>
 </calculation>
 <calculation>
  <scstep>
   <time name="dav">  565.26  565.25</time>
   <time name="total">  572.50  572.54</time>
   <energy>
    <i name="alphaZ">   5642.63448487 </i>
    <i name="ewald"> -63049.65393687 </i>
    <i name="hartreedc"> -18703.96156182 </i>
    <i name="XCdc">   3405.83128436 </i>
    <i name="pawpsdc"> 117231.33484063 </i>
    <i name="pawaedc">-116735.42357935 </i>
    <i name="eentropy">     -0.00659526 </i>
    <i name="bandstr">  -7097.70827947 </i>
    <i name="atom">  78316.90445604 </i>
    <i name="e_fr_energy">   -990.04888686 </i>
    <i name="e_wo_entrp">   -990.04229160 </i>
    <i name="e_0_energy">   -990.04558923 </i>
   </energy>
  </scstep>
  <scstep>
   <time name="diag">   64.40   64.42</time>
   <time name="diis">  104.20  104.21</time>
   <time name="orth">   33.14   33.14</time>
   <time name="total">  209.04  209.11</time>
   <energy>
    <i name="e_fr_energy">   -990.04943947 </i>
    <i name="e_wo_entrp">   -990.04278100 </i>
    <i name="e_0_energy">   -990.04611023 </i>
   </energy>
  </scstep>
  <scstep>
   <time name="diag">   64.48   64.49</time>
   <time name="diis">   75.60   75.62</time>
   <time name="orth">   33.11   33.13</time>
   <time name="total">  180.50  180.62</time>
   <energy>
    <i name="e_fr_energy">   -990.04945763 </i>
    <i name="e_wo_entrp">   -990.04283152 </i>
    <i name="e_0_energy">   -990.04614458 </i>
   </energy>
  </scstep>
  <scstep>
   <time name="diag">   64.46   64.57</time>
   <time name="diis">   65.00   65.03</time>
   <time name="orth">   33.20   33.20</time>
   <time name="total">  169.95  170.12</time>
   <energy>
    <i name="e_fr_energy">   -990.04942659 </i>
    <i name="e_wo_entrp">   -990.04280779 </i>
    <i name="e_0_energy">   -990.04611719 </i>
   </energy>
  </scstep>
  <scstep>
   <time name="diag">   64.48   64.54</time>
   <time name="diis">   64.45   64.50</time>
   <time name="orth">   33.16   33.20</time>
   <time name="total">  169.39  169.58</time>
   <energy>
    <i name="e_fr_energy">   -990.04941061 </i>
    <i name="e_wo_entrp">   -990.04277365 </i>
    <i name="e_0_energy">   -990.04609213 </i>
   </energy>
  </scstep>
  <scstep>
   <time name="diag">   64.60   64.62</time>
   <time name="diis">   61.86   61.89</time>
   <time name="orth">   33.13   33.13</time>
   <time name="total">  166.89  166.96</time>
   <energy>
    <i name="e_fr_energy">   -990.04941155 </i>
    <i name="e_wo_entrp">   -990.04278349 </i>
    <i name="e_0_energy">   -990.04609752 </i>
   </energy>
  </scstep>
  <scstep>
   <time name="diag">   64.50   64.50</time>
   <time name="diis">   56.69   56.71</time>
   <time name="orth">   33.05   33.05</time>
   <time name="total">  161.56  161.67</time>
   <energy>
    <i name="e_fr_energy">   -990.04941187 </i>
    <i name="e_wo_entrp">   -990.04278918 </i>
    <i name="e_0_energy">   -990.04610053 </i>
   </energy>
  </scstep>
  <scstep>
   <time name="diag">   64.39   64.45</time>
   <time name="diis">   53.60   53.60</time>
   <time name="orth">   33.07   33.07</time>
   <time name="total">  152.13  152.21</time>
   <energy>
    <i name="alphaZ">   5642.63448487 </i>
    <i name="ewald"> -63049.65393687 </i>
    <i name="hartreedc"> -18703.79852411 </i>
    <i name="XCdc">   3405.81758379 </i>
    <i name="pawpsdc"> 117232.18177398 </i>
    <i name="pawaedc">-116736.28014059 </i>
    <i name="eentropy">     -0.00662501 </i>
    <i name="bandstr">  -7097.84848413 </i>
    <i name="atom">  78316.90445604 </i>
    <i name="e_fr_energy">   -990.04941202 </i>
    <i name="e_wo_entrp">   -990.04278701 </i>
    <i name="e_0_energy">   -990.04609951 </i>
   </energy>
  </scstep>
  <structure>
   <crystal>
    <varray name="basis" >
     <v>      11.23509605      -0.00492788      -0.03215322 </v>
     <v>      -0.00492354      11.25633712       0.00058355 </v>
     <v>      -0.04680122       0.00101370      15.74760376 </v>
    </varray>
    <i name="volume">   1991.51958265 </i>
    <varray name="rec_basis" >
     <v>       0.08900758       0.00003892       0.00026452 </v>
     <v>       0.00003895       0.08883886      -0.00000560 </v>
     <v>       0.00018173      -0.00000321       0.06350227 </v>
    </varray>
   </crystal>
   <varray name="positions" >
    <v>       0.01352600       0.24514684       0.11954977 </v>
    <v>       0.99399559       0.24488344       0.62208918 </v>
    <v>       0.01467124       0.75342616       0.11588781 </v>
    <v>       0.00080952       0.76311075       0.62147516 </v>
    <v>       0.48483214       0.24047561       0.11491603 </v>
    <v>       0.50006593       0.24893900       0.63267492 </v>
    <v>       0.47631106       0.75487821       0.12206390 </v>
    <v>       0.50242535       0.74544016       0.62181955 </v>
    <v>       0.99884593       0.25303245       0.37714986 </v>
    <v>       0.99787770       0.24818563       0.88080781 </v>
    <v>       0.00695521       0.75071683       0.38450649 </v>
    <v>       0.00276674       0.76156556       0.87825473 </v>
    <v>       0.49480488       0.24749622       0.37692978 </v>
    <v>       0.50297355       0.25709839       0.87381302 </v>
    <v>       0.49994574       0.75168407       0.38228692 </v>
    <v>       0.50193903       0.74590323       0.88021585 </v>
    <v>       0.24534670       0.00135854       0.11678909 </v>
    <v>       0.24311651       0.01162825       0.62417652 </v>
    <v>       0.24299828       0.49867502       0.11900050 </v>
    <v>       0.26622479       0.49108295       0.62198413 </v>
    <v>       0.75473767       0.00312945       0.11777355 </v>
    <v>       0.74461672       0.00622539       0.62497667 </v>
    <v>       0.76137413       0.47957753       0.12401106 </v>
    <v>       0.73796153       0.49259117       0.62562032 </v>
    <v>       0.24066628       0.00618186       0.37447469 </v>
    <v>       0.24806383       0.00047892       0.88195778 </v>
    <v>       0.23967069       0.50427695       0.38029432 </v>
    <v>       0.26085059       0.50000783       0.88414409 </v>
    <v>       0.75190517       0.99849900       0.38620930 </v>
    <v>       0.74739490       0.01345566       0.87035130 </v>
    <v>       0.76178647       0.50104705       0.38458108 </v>
    <v>       0.74568516       0.49026839       0.87642299 </v>
    <v>       0.00070578       0.99790574       0.49631830 </v>
    <v>       0.00195045       0.49965164       0.50391234 </v>
    <v>       0.49388044       0.00053964       0.49985512 </v>
    <v>       0.74868751       0.24847636       0.00112960 </v>
    <v>       0.24241629       0.73631917       0.75173577 </v>
    <v>       0.99458017       0.00475982       0.74965061 </v>
    <v>       0.00628783       0.50070519       0.25093487 </v>
    <v>       0.98253637       0.50955787       0.74737605 </v>
    <v>       0.00218552       0.00402909       0.00148461 </v>
    <v>       0.99971396       0.50098307       0.00030284 </v>
    <v>       0.49493706       0.00029780       0.99693152 </v>
    <v>       0.49432916       0.49348501       0.00344178 </v>
    <v>       0.49051847       0.50990304       0.49274306 </v>
    <v>       0.24499516       0.25074384       0.99388594 </v>
    <v>       0.24975214       0.25171136       0.50817363 </v>
    <v>       0.25113514       0.75237113       0.99674352 </v>
    <v>       0.25260948       0.75675066       0.51286212 </v>
    <v>       0.75458095       0.24125801       0.49871327 </v>
    <v>       0.76489582       0.75931214       0.99251572 </v>
    <v>       0.74670913       0.74973698       0.49206073 </v>
    <v>       0.24648776       0.24867848       0.24022238 </v>
    <v>       0.26069862       0.23721526       0.75437573 </v>
    <v>       0.24606084       0.75004510       0.24287173 </v>
    <v>       0.77505359       0.24401713       0.25226562 </v>
    <v>       0.74923636       0.25397960       0.74669976 </v>
    <v>       0.79439494       0.74283439       0.26226888 </v>
    <v>       0.74280509       0.75307770       0.75460244 </v>
    <v>       0.00131617       0.99642164       0.24859670 </v>
    <v>       0.47116923       0.99793224       0.25421475 </v>
    <v>       0.51022856       0.00600671       0.75085424 </v>
    <v>       0.47610977       0.50381747       0.25227182 </v>
    <v>       0.50526642       0.50201133       0.74904377 </v>
    <v>       0.11693193       0.14065713       0.27181895 </v>
    <v>       0.11084919       0.13845890       0.75076806 </v>
    <v>       0.11195859       0.63986943       0.26875749 </v>
    <v>       0.13454638       0.60911020       0.75361035 </v>
    <v>       0.61753236       0.13298724       0.75237526 </v>
    <v>       0.63040861       0.62901545       0.72699064 </v>
    <v>       0.39183551       0.36340905       0.24188314 </v>
    <v>       0.37315648       0.37924930       0.75304551 </v>
    <v>       0.39823638       0.84618938       0.25672430 </v>
    <v>       0.89862950       0.35457994       0.24364739 </v>
    <v>       0.89065342       0.36677984       0.74392618 </v>
    <v>       0.87720304       0.86530420       0.21388718 </v>
    <v>       0.87130662       0.86871126       0.73517609 </v>
    <v>       0.36985077       0.13631951       0.27224758 </v>
    <v>       0.36219735       0.10132426       0.75860220 </v>
    <v>       0.36114389       0.62166378       0.27250743 </v>
    <v>       0.38321651       0.63750211       0.74175736 </v>
    <v>       0.84476270       0.09583529       0.25557049 </v>
    <v>       0.86453597       0.11924209       0.73837936 </v>
    <v>       0.84405130       0.58636540       0.24785512 </v>
    <v>       0.87340952       0.62717273       0.72510099 </v>
    <v>       0.14297998       0.38820389       0.26095922 </v>
    <v>       0.14241301       0.88068622       0.26310130 </v>
    <v>       0.12823830       0.87412433       0.75447044 </v>
    <v>       0.63133428       0.38141758       0.75708006 </v>
    <v>       0.61994284       0.87222776       0.73105079 </v>
    <v>       0.37385497       0.37875401       0.00922864 </v>
    <v>       0.37461324       0.37195255       0.47632408 </v>
    <v>       0.37213303       0.87967830       0.00894364 </v>
    <v>       0.37044566       0.87532066       0.47710218 </v>
    <v>       0.87524246       0.37006383       0.01197747 </v>
    <v>       0.86532538       0.38063905       0.50138499 </v>
    <v>       0.87983013       0.87621337       0.00744759 </v>
    <v>       0.86756849       0.87259407       0.51275512 </v>
    <v>       0.12436988       0.12486953       0.98663928 </v>
    <v>       0.12392577       0.12517761       0.48744884 </v>
    <v>       0.12426221       0.63053403       0.98546122 </v>
    <v>       0.13096096       0.62743150       0.49978941 </v>
    <v>       0.62740602       0.11613664       0.99640631 </v>
    <v>       0.61622378       0.13006978       0.50018953 </v>
    <v>       0.63441143       0.61754578       0.50822798 </v>
    <v>       0.12340968       0.38016051       0.00246920 </v>
    <v>       0.12481541       0.36986422       0.48535660 </v>
    <v>       0.12613684       0.87501461       0.99310324 </v>
    <v>       0.12536953       0.87056656       0.49186030 </v>
    <v>       0.62743082       0.38148379       0.00124296 </v>
    <v>       0.62696618       0.83563591       0.02682514 </v>
    <v>       0.62204103       0.87193473       0.51384263 </v>
    <v>       0.37751338       0.12933807       0.98762013 </v>
    <v>       0.36842881       0.12565200       0.48626089 </v>
    <v>       0.38576928       0.62894135       0.00448835 </v>
    <v>       0.37348465       0.63216568       0.48908078 </v>
    <v>       0.87255153       0.12782842       0.01286845 </v>
    <v>       0.87420431       0.12446605       0.49692211 </v>
    <v>       0.85091712       0.62022457       0.01819919 </v>
    <v>       0.87979044       0.62920533       0.51345080 </v>
    <v>       0.02443332       0.01422608       0.12730136 </v>
    <v>       0.01279427       0.00073561       0.62123799 </v>
    <v>       0.01734803       0.51440498       0.12947025 </v>
    <v>       0.03289352       0.47642423       0.62897026 </v>
    <v>       0.50089996       0.01092459       0.13756400 </v>
    <v>       0.47315726       0.99795623       0.62267003 </v>
    <v>       0.54197371       0.53480371       0.14103072 </v>
    <v>       0.50065951       0.47332728       0.61192233 </v>
    <v>       0.98037821       0.97864717       0.37490516 </v>
    <v>       0.97939295       0.99897748       0.87151332 </v>
    <v>       0.99057626       0.50467116       0.37922661 </v>
    <v>       0.98352326       0.50321391       0.87025332 </v>
    <v>       0.52744038       0.99593015       0.36744296 </v>
    <v>       0.50813741       0.96889269       0.87317837 </v>
    <v>       0.54216470       0.49428634       0.36600485 </v>
    <v>       0.51533185       0.51949631       0.88081584 </v>
    <v>       0.23244770       0.27750184       0.86930622 </v>
    <v>       0.27577143       0.76461008       0.86813259 </v>
    <v>       0.72056293       0.26829678       0.36854216 </v>
    <v>       0.75875256       0.24919373       0.87868389 </v>
    <v>       0.72627296       0.76117794       0.37047843 </v>
    <v>       0.74334498       0.73578183       0.87438577 </v>
    <v>       0.24322767       0.23285896       0.12197099 </v>
    <v>       0.24572141       0.25873514       0.62842982 </v>
    <v>       0.24292359       0.73861655       0.12456480 </v>
    <v>       0.26736406       0.77934191       0.63159226 </v>
    <v>       0.70910145       0.25038115       0.14172350 </v>
    <v>       0.72929859       0.26371620       0.61820489 </v>
   </varray>
  </structure>
  <varray name="forces" >
   <v>      -0.00089932      -0.00202661      -0.00277073 </v>
   <v>       0.00338257       0.00519033       0.00279236 </v>
   <v>      -0.00459727       0.00352314       0.00062606 </v>
   <v>       0.00416761      -0.00475211      -0.00230324 </v>
   <v>      -0.00503224      -0.00218975      -0.00221285 </v>
   <v>       0.00024642       0.00000903       0.00030157 </v>
   <v>      -0.00075136      -0.00398209       0.00071777 </v>
   <v>      -0.00046215      -0.00750000       0.00069673 </v>
   <v>       0.00255671      -0.00520892       0.00197716 </v>
   <v>      -0.00317582      -0.00127199      -0.00127600 </v>
   <v>       0.00200157       0.00461783      -0.00006314 </v>
   <v>      -0.00196948       0.00207361       0.00707840 </v>
   <v>      -0.00681623       0.00213074       0.00264111 </v>
   <v>      -0.00086359      -0.00439927      -0.00134472 </v>
   <v>      -0.00196819      -0.00304650      -0.00057432 </v>
   <v>      -0.00135490       0.00342974       0.00136604 </v>
   <v>      -0.00003792       0.00189666       0.00326434 </v>
   <v>       0.00305355       0.00422310      -0.00313014 </v>
   <v>       0.00144190      -0.00141679      -0.00141520 </v>
   <v>      -0.00680413      -0.00047831       0.00165913 </v>
   <v>      -0.00301326      -0.00127482       0.00044210 </v>
   <v>      -0.00288854       0.00792945       0.00278260 </v>
   <v>       0.00317468      -0.00619383      -0.00645760 </v>
   <v>       0.00135037      -0.00445420       0.00438070 </v>
   <v>       0.00299075      -0.00465759       0.00403592 </v>
   <v>      -0.00450579       0.00370903       0.00073641 </v>
   <v>       0.00340498       0.00270412       0.00142739 </v>
   <v>      -0.00678867      -0.00578309       0.00137487 </v>
   <v>       0.00151706      -0.00423986       0.00338056 </v>
   <v>      -0.00122389       0.00424098      -0.00131368 </v>
   <v>      -0.00686253      -0.00228714      -0.00037514 </v>
   <v>       0.00531751      -0.00198526      -0.00415046 </v>
   <v>       0.03302202       0.00639242       0.00238796 </v>
   <v>       0.02039138      -0.00822578       0.05458749 </v>
   <v>      -0.00801565       0.00349941       0.00482319 </v>
   <v>      -0.00048447       0.00674855      -0.01557913 </v>
   <v>      -0.01064820      -0.02437244       0.00134921 </v>
   <v>      -0.01683586       0.02937213      -0.00242658 </v>
   <v>       0.00831559       0.00053240      -0.03134948 </v>
   <v>       0.03602597      -0.05397382      -0.00477837 </v>
   <v>       0.00180196      -0.00240407       0.00239287 </v>
   <v>       0.00166826      -0.00156382      -0.00987689 </v>
   <v>      -0.00160555      -0.00286685       0.00181718 </v>
   <v>       0.00198159       0.00165940      -0.00291805 </v>
   <v>      -0.00296975       0.00013767       0.00442520 </v>
   <v>       0.00165252       0.00107332      -0.00286636 </v>
   <v>      -0.00225549       0.00093692       0.00475502 </v>
   <v>      -0.00003186      -0.00316154       0.00019699 </v>
   <v>       0.00002846       0.00151784       0.00054125 </v>
   <v>      -0.00127884       0.00111543       0.00662670 </v>
   <v>       0.00355053      -0.00210378       0.00585452 </v>
   <v>      -0.00454750       0.00054007      -0.00467743 </v>
   <v>       0.00231696      -0.00432354       0.00223748 </v>
   <v>      -0.00301261       0.00134996      -0.00433845 </v>
   <v>      -0.00163162       0.00099910      -0.00227263 </v>
   <v>      -0.00285178      -0.00931463       0.00257021 </v>
   <v>       0.01190023       0.00055312       0.00531755 </v>
   <v>      -0.00006187       0.01690016      -0.00780536 </v>
   <v>      -0.00539895      -0.00088123       0.00419214 </v>
   <v>      -0.00000588       0.00063993      -0.00344729 </v>
   <v>      -0.00382435      -0.00031114      -0.00147311 </v>
   <v>      -0.00262941       0.00341240       0.00148767 </v>
   <v>      -0.00266190      -0.00022045      -0.00176306 </v>
   <v>      -0.00235295      -0.00581078       0.00289270 </v>
   <v>      -0.00331799       0.00110863      -0.00033465 </v>
   <v>       0.00217175      -0.01195897       0.00360294 </v>
   <v>      -0.01129188      -0.00889553       0.00135780 </v>
   <v>       0.01849223       0.00548633      -0.00034690 </v>
   <v>       0.00340316      -0.01091209      -0.00209176 </v>
   <v>       0.00725208       0.00569404       0.00392753 </v>
   <v>       0.00156955       0.00112848       0.00268824 </v>
   <v>       0.00110795       0.00143838       0.00052920 </v>
   <v>      -0.00288123      -0.00346845      -0.00212703 </v>
   <v>       0.00058012       0.00835694       0.00364958 </v>
   <v>       0.00032293       0.00406891       0.00095712 </v>
   <v>      -0.00202644      -0.00706135       0.00955709 </v>
   <v>      -0.00427697      -0.00644315      -0.00258069 </v>
   <v>       0.00410543       0.00007299      -0.00076575 </v>
   <v>       0.00708656      -0.00101776      -0.00438093 </v>
   <v>      -0.00396306       0.00428566       0.00078901 </v>
   <v>      -0.00126121      -0.00160005      -0.00100082 </v>
   <v>      -0.00134294       0.01018672       0.00158676 </v>
   <v>       0.01369781      -0.00339978      -0.00125304 </v>
   <v>       0.01121641      -0.00821861       0.00178336 </v>
   <v>      -0.03518832       0.04088074      -0.00166448 </v>
   <v>      -0.00621579       0.00861544      -0.00000640 </v>
   <v>       0.00018611       0.00355237       0.00496401 </v>
   <v>      -0.00399882      -0.00072852      -0.00424759 </v>
   <v>      -0.00243080       0.00608311      -0.00356468 </v>
   <v>      -0.00083471      -0.00803559       0.00606159 </v>
   <v>       0.00212609      -0.00355996      -0.00860172 </v>
   <v>       0.00100095       0.00540067      -0.00094178 </v>
   <v>       0.00109850       0.00225612      -0.00351169 </v>
   <v>       0.00124644       0.00100415      -0.00203067 </v>
   <v>      -0.00817902       0.00198634      -0.00100132 </v>
   <v>      -0.00174421      -0.00208174      -0.00713119 </v>
   <v>       0.00304365      -0.00357529       0.00808275 </v>
   <v>       0.00167506      -0.00290239      -0.00412475 </v>
   <v>      -0.00603368       0.00710682      -0.00052976 </v>
   <v>      -0.00558910      -0.00428978      -0.00524847 </v>
   <v>      -0.00319017      -0.00305770      -0.00251470 </v>
   <v>      -0.00348087       0.00086179      -0.00984419 </v>
   <v>      -0.00241546      -0.00003127      -0.00115334 </v>
   <v>       0.00134515       0.00153666      -0.00062858 </v>
   <v>       0.00292544       0.00455101      -0.00111717 </v>
   <v>       0.00828024      -0.00260250       0.00323639 </v>
   <v>      -0.00164339       0.00632840       0.00031264 </v>
   <v>       0.00068430       0.00066369       0.00353567 </v>
   <v>      -0.00425816       0.00326389       0.00051457 </v>
[...]
       <r>   -17.7727     0.0000    32.0000 </r>
       <r>   -17.6179     0.0000    32.0000 </r>
       <r>   -17.4631     0.0000    32.0000 </r>
       <r>   -17.3084     0.0000    32.0000 </r>
       <r>   -17.1536     0.0000    32.0000 </r>
       <r>   -16.9988     0.0000    32.0000 </r>
       <r>   -16.8441     0.0000    32.0000 </r>
       <r>   -16.6893     0.0000    32.0000 </r>
       <r>   -16.5345     0.0000    32.0000 </r>
       <r>   -16.3798     0.0000    32.0000 </r>
       <r>   -16.2250     0.0000    32.0000 </r>
       <r>   -16.0702     0.0000    32.0000 </r>
       <r>   -15.9155     0.0000    32.0000 </r>
       <r>   -15.7607     0.0000    32.0000 </r>
       <r>   -15.6059     0.0000    32.0000 </r>
       <r>   -15.4512     0.0000    32.0000 </r>
       <r>   -15.2964     0.0000    32.0000 </r>
       <r>   -15.1416     3.1699    32.4906 </r>
       <r>   -14.9868    15.1041    34.8282 </r>
       <r>   -14.8321    44.0471    41.6453 </r>
       <r>   -14.6773    42.3726    48.2032 </r>
       <r>   -14.5225    44.4558    55.0835 </r>
       <r>   -14.3678    37.3203    60.8595 </r>
       <r>   -14.2130    48.3249    68.3386 </r>
       <r>   -14.0582    68.9962    79.0170 </r>
       <r>   -13.9035    78.4552    91.1594 </r>
       <r>   -13.7487    71.3970   102.2093 </r>
       <r>   -13.5939    50.6583   110.0496 </r>
       <r>   -13.4392    33.1540   115.1807 </r>
       <r>   -13.2844     5.2932   116.0000 </r>
       <r>   -13.1296     0.0003   116.0000 </r>
       <r>   -12.9749     0.0001   116.0000 </r>
       <r>   -12.8201     4.5821   116.7092 </r>
       <r>   -12.6653    41.7356   123.1685 </r>
       <r>   -12.5106    75.8440   134.9067 </r>
       <r>   -12.3558   113.1297   152.4155 </r>
       <r>   -12.2010   115.7118   170.3240 </r>
       <r>   -12.0463    97.2835   185.3803 </r>
       <r>   -11.8915    75.5340   197.0706 </r>
       <r>   -11.7367    64.7524   207.0921 </r>
       <r>   -11.5820    30.8765   211.8708 </r>
       <r>   -11.4272     0.8346   212.0000 </r>
       <r>   -11.2724     0.0000   212.0000 </r>
       <r>   -11.1177     0.0000   212.0000 </r>
       <r>   -10.9629     0.0000   212.0000 </r>
       <r>   -10.8081     0.0000   212.0000 </r>
       <r>   -10.6534     0.0000   212.0000 </r>
       <r>   -10.4986     0.0000   212.0000 </r>
       <r>   -10.3438     0.0000   212.0000 </r>
       <r>   -10.1891     0.0000   212.0000 </r>
       <r>   -10.0343     0.0000   212.0000 </r>
       <r>    -9.8795     0.0000   212.0000 </r>
       <r>    -9.7247     0.0000   212.0000 </r>
       <r>    -9.5700     0.0000   212.0000 </r>
       <r>    -9.4152     0.0000   212.0000 </r>
       <r>    -9.2604     0.0000   212.0000 </r>
       <r>    -9.1057     0.0000   212.0000 </r>
       <r>    -8.9509     0.0000   212.0000 </r>
       <r>    -8.7961     0.0000   212.0000 </r>
       <r>    -8.6414     0.0000   212.0000 </r>
       <r>    -8.4866     0.0000   212.0000 </r>
       <r>    -8.3318     0.0000   212.0000 </r>
       <r>    -8.1771     0.0000   212.0000 </r>
       <r>    -8.0223     0.0000   212.0000 </r>
       <r>    -7.8675     0.0000   212.0000 </r>
       <r>    -7.7128     0.0000   212.0000 </r>
       <r>    -7.5580     0.0000   212.0000 </r>
       <r>    -7.4032     0.0000   212.0000 </r>
       <r>    -7.2485     0.0000   212.0000 </r>
       <r>    -7.0937     0.0000   212.0000 </r>
       <r>    -6.9389     0.0000   212.0000 </r>
       <r>    -6.7842     0.0000   212.0000 </r>
       <r>    -6.6294     0.0000   212.0000 </r>
       <r>    -6.4746     0.0000   212.0000 </r>
       <r>    -6.3199     0.0000   212.0000 </r>
       <r>    -6.1651     0.0000   212.0000 </r>
       <r>    -6.0103     0.0000   212.0000 </r>
       <r>    -5.8556     0.0000   212.0000 </r>
       <r>    -5.7008     0.0000   212.0000 </r>
       <r>    -5.5460     0.0000   212.0000 </r>
       <r>    -5.3913     0.0000   212.0000 </r>
       <r>    -5.2365     0.0000   212.0000 </r>
       <r>    -5.0817     0.0000   212.0000 </r>
       <r>    -4.9269     0.0000   212.0000 </r>
       <r>    -4.7722     0.0000   212.0000 </r>
       <r>    -4.6174     0.0000   212.0000 </r>
       <r>    -4.4626     0.0000   212.0000 </r>
       <r>    -4.3079     0.0000   212.0000 </r>
       <r>    -4.1531     0.0000   212.0000 </r>
       <r>    -3.9983     0.0000   212.0000 </r>
       <r>    -3.8436     0.0000   212.0000 </r>
       <r>    -3.6888     0.0000   212.0000 </r>
       <r>    -3.5340     0.0000   212.0000 </r>
       <r>    -3.3793     0.0000   212.0000 </r>
       <r>    -3.2245     0.0000   212.0000 </r>
       <r>    -3.0697     0.0000   212.0000 </r>
       <r>    -2.9150     0.0000   212.0000 </r>
       <r>    -2.7602     0.0000   212.0000 </r>
       <r>    -2.6054     2.1067   212.3261 </r>
       <r>    -2.4507     5.2058   213.1317 </r>
       <r>    -2.2959    14.5595   215.3851 </r>
       <r>    -2.1411    20.1827   218.5087 </r>
       <r>    -1.9864    24.0243   222.2269 </r>
       <r>    -1.8316    24.6925   226.0485 </r>
       <r>    -1.6768    29.3576   230.5921 </r>
       <r>    -1.5221    30.7043   235.3441 </r>
       <r>    -1.3673    37.2170   241.1041 </r>
       <r>    -1.2125    36.2296   246.7113 </r>
       <r>    -1.0578    62.1708   256.3333 </r>
       <r>    -0.9030    80.4707   268.7876 </r>
       <r>    -0.7482    92.2927   283.0715 </r>
       <r>    -0.5935    95.0993   297.7898 </r>
       <r>    -0.4387    83.8563   310.7681 </r>
       <r>    -0.2839    71.7110   321.8666 </r>
       <r>    -0.1291    58.6990   330.9513 </r>
       <r>     0.0256    57.1063   339.7896 </r>
       <r>     0.1804    54.9658   348.2965 </r>
       <r>     0.3352    55.9090   356.9494 </r>
       <r>     0.4899    55.8530   365.5936 </r>
       <r>     0.6447    57.6593   374.5174 </r>
       <r>     0.7995    50.1462   382.2785 </r>
       <r>     0.9542    56.5498   391.0305 </r>
       <r>     1.1090    62.4410   400.6944 </r>
       <r>     1.2638    63.3418   410.4977 </r>
       <r>     1.4185    67.4047   420.9297 </r>
       <r>     1.5733    73.6742   432.3321 </r>
       <r>     1.7281    65.3810   442.4510 </r>
       <r>     1.8828    55.8621   451.0966 </r>
       <r>     2.0376    36.1016   456.6840 </r>
       <r>     2.1924    37.1132   462.4279 </r>
       <r>     2.3471    16.0196   464.9072 </r>
       <r>     2.5019     1.7019   465.1706 </r>
       <r>     2.6567     5.3568   465.9997 </r>
       <r>     2.8114     0.0020   466.0000 </r>
       <r>     2.9662     0.0000   466.0000 </r>
       <r>     3.1210     0.0000   466.0000 </r>
       <r>     3.2757     0.0000   466.0000 </r>
       <r>     3.4305     0.0000   466.0000 </r>
       <r>     3.5853     0.0000   466.0000 </r>
       <r>     3.7400     0.0000   466.0000 </r>
       <r>     3.8948     0.0000   466.0000 </r>
       <r>     4.0496     0.0000   466.0000 </r>
       <r>     4.2043     2.0325   466.3146 </r>
       <r>     4.3591    17.6704   469.0494 </r>
       <r>     4.5139    49.0464   476.6402 </r>
       <r>     4.6687    60.2900   485.9711 </r>
       <r>     4.8234    72.0740   497.1259 </r>
       <r>     4.9782    63.3205   506.9258 </r>
       <r>     5.1330    69.8462   517.7358 </r>
       <r>     5.2877    76.8744   529.6334 </r>
       <r>     5.4425    87.2042   543.1298 </r>
       <r>     5.5973    72.0696   554.2839 </r>
       <r>     5.7520    68.9430   564.9540 </r>
       <r>     5.9068    66.9766   575.3199 </r>
       <r>     6.0616    59.6894   584.5579 </r>
       <r>     6.2163    42.3266   591.1086 </r>
       <r>     6.3711    31.8357   596.0358 </r>
       <r>     6.5259    26.1748   600.0868 </r>
       <r>     6.6806    23.8254   603.7742 </r>
       <r>     6.8354    24.2913   607.5337 </r>
       <r>     6.9902    18.3951   610.3807 </r>
       <r>     7.1449    14.2208   612.5816 </r>
       <r>     7.2997    11.9291   614.4278 </r>
       <r>     7.4545    16.5341   616.9868 </r>
       <r>     7.6092    17.3389   619.6703 </r>
       <r>     7.7640    14.8405   621.9671 </r>
       <r>     7.9188    15.6870   624.3950 </r>
       <r>     8.0735    22.4259   627.8658 </r>
       <r>     8.2283    25.0232   631.7385 </r>
       <r>     8.3831    16.7105   634.3248 </r>
       <r>     8.5378    24.3672   638.0960 </r>
       <r>     8.6926    23.8879   641.7931 </r>
       <r>     8.8474    26.6704   645.9208 </r>
       <r>     9.0021    31.7299   650.8316 </r>
       <r>     9.1569    32.7415   655.8989 </r>
       <r>     9.3117    37.8811   661.7617 </r>
       <r>     9.4665    42.3014   668.3086 </r>
       <r>     9.6212    46.9920   675.5814 </r>
       <r>     9.7760    53.1295   683.8042 </r>
       <r>     9.9308    54.5598   692.2483 </r>
       <r>    10.0855    54.4890   700.6814 </r>
       <r>    10.2403    57.2287   709.5386 </r>
       <r>    10.3951    51.5385   717.5151 </r>
       <r>    10.5498    52.4319   725.6298 </r>
       <r>    10.7046    51.6243   733.6196 </r>
       <r>    10.8594    49.2906   741.2482 </r>
       <r>    11.0141    53.5658   749.5385 </r>
       <r>    11.1689    54.0057   757.8968 </r>
       <r>    11.3237    48.7083   765.4353 </r>
       <r>    11.4784    16.5643   767.9989 </r>
       <r>    11.6332     0.0072   768.0000 </r>
       <r>    11.7880     0.0000   768.0000 </r>
       <r>    11.9427     0.0000   768.0000 </r>
       <r>    12.0975     0.0000   768.0000 </r>
       <r>    12.2523     0.0000   768.0000 </r>
       <r>    12.4070     0.0000   768.0000 </r>
       <r>    12.5618     0.0000   768.0000 </r>
       <r>    12.7166     0.0000   768.0000 </r>
       <r>    12.8713     0.0000   768.0000 </r>
       <r>    13.0261     0.0000   768.0000 </r>
       <r>    13.1809     0.0000   768.0000 </r>
       <r>    13.3356     0.0000   768.0000 </r>
       <r>    13.4904     0.0000   768.0000 </r>
      </set>
     </set>
    </array>
   </total>
  </dos>
 </calculation>
 <structure name="finalpos" >
  <crystal>
   <varray name="basis" >
    <v>      11.23516002      -0.00505671      -0.03206453 </v>
    <v>      -0.00505270      11.25646823       0.00054065 </v>
    <v>      -0.04667688       0.00095427      15.74771769 </v>
   </varray>
   <i name="volume">   1991.56860065 </i>
   <varray name="rec_basis" >
    <v>       0.08900707       0.00003994       0.00026382 </v>
    <v>       0.00003997       0.08883783      -0.00000526 </v>
    <v>       0.00018123      -0.00000297       0.06350180 </v>
   </varray>
  </crystal>
  <varray name="positions" >
   <v>       0.01351530       0.24514261       0.11954700 </v>
   <v>       0.99400191       0.24488092       0.62208240 </v>
   <v>       0.01465432       0.75343944       0.11589696 </v>
   <v>       0.00081618       0.76309728       0.62147028 </v>
   <v>       0.48480501       0.24045821       0.11490630 </v>
   <v>       0.50007452       0.24893721       0.63267960 </v>
   <v>       0.47630534       0.75486239       0.12207084 </v>
   <v>       0.50242655       0.74540348       0.62182052 </v>
   <v>       0.99883833       0.25302275       0.37715407 </v>
   <v>       0.99787805       0.24816852       0.88081917 </v>
   <v>       0.00695172       0.75071884       0.38450647 </v>
   <v>       0.00275086       0.76158284       0.87826963 </v>
   <v>       0.49478880       0.24750566       0.37694068 </v>
   <v>       0.50296836       0.25707372       0.87381020 </v>
   <v>       0.49994750       0.75166665       0.38228621 </v>
   <v>       0.50194003       0.74592034       0.88021744 </v>
   <v>       0.24534532       0.00136605       0.11679897 </v>
   <v>       0.24312905       0.01163991       0.62416760 </v>
   <v>       0.24300131       0.49867211       0.11899947 </v>
   <v>       0.26621620       0.49108785       0.62198611 </v>
   <v>       0.75472103       0.00313021       0.11777877 </v>
   <v>       0.74460778       0.00625634       0.62497818 </v>
   <v>       0.76139481       0.47953815       0.12400057 </v>
   <v>       0.73796294       0.49258549       0.62563081 </v>
   <v>       0.24067806       0.00615732       0.37448401 </v>
   <v>       0.24804203       0.00049308       0.88196099 </v>
   <v>       0.23967009       0.50429553       0.38029321 </v>
   <v>       0.26082627       0.49998110       0.88415420 </v>
   <v>       0.75190389       0.99847182       0.38622419 </v>
   <v>       0.74738436       0.01346358       0.87034797 </v>
   <v>       0.76178789       0.50103420       0.38458109 </v>
   <v>       0.74570255       0.49027487       0.87640699 </v>
   <v>       0.00076190       0.99788799       0.49632075 </v>
   <v>       0.00197832       0.49965209       0.50396442 </v>
   <v>       0.49386396       0.00055557       0.49986586 </v>
   <v>       0.74867016       0.24849644       0.00110852 </v>
   <v>       0.24239498       0.73626264       0.75173947 </v>
   <v>       0.99452807       0.00480889       0.74964053 </v>
   <v>       0.00628865       0.50070132       0.25088741 </v>
   <v>       0.98259916       0.50947815       0.74736758 </v>
   <v>       0.00220967       0.00402044       0.00149199 </v>
   <v>       0.99973031       0.50097455       0.00028538 </v>
   <v>       0.49493813       0.00029287       0.99693688 </v>
   <v>       0.49433236       0.49348463       0.00343094 </v>
   <v>       0.49050677       0.50993500       0.49275299 </v>
   <v>       0.24500650       0.25073395       0.99387134 </v>
   <v>       0.24974030       0.25171131       0.50818701 </v>
   <v>       0.25113532       0.75236071       0.99675233 </v>
   <v>       0.25261129       0.75675257       0.51286668 </v>
   <v>       0.75458272       0.24127075       0.49871849 </v>
   <v>       0.76490696       0.75930694       0.99251100 </v>
   <v>       0.74670590       0.74974746       0.49202745 </v>
   <v>       0.24648793       0.24866272       0.24023403 </v>
   <v>       0.26070415       0.23720969       0.75437084 </v>
   <v>       0.24603943       0.75003953       0.24286500 </v>
   <v>       0.77503762       0.24400664       0.25227420 </v>
   <v>       0.74924576       0.25398515       0.74670790 </v>
   <v>       0.79437996       0.74286985       0.26226784 </v>
   <v>       0.74280248       0.75307427       0.75462010 </v>
   <v>       0.00130784       0.99642400       0.24859862 </v>
   <v>       0.47115922       0.99792154       0.25421146 </v>
   <v>       0.51023323       0.00600327       0.75086160 </v>
   <v>       0.47609008       0.50382047       0.25227976 </v>
   <v>       0.50526469       0.50199847       0.74904987 </v>
   <v>       0.11692714       0.14067154       0.27181263 </v>
   <v>       0.11087218       0.13841584       0.75077782 </v>
   <v>       0.11193270       0.63986080       0.26875520 </v>
   <v>       0.13460404       0.60908813       0.75360533 </v>
   <v>       0.61755783       0.13293963       0.75236819 </v>
   <v>       0.63041405       0.62902240       0.72700081 </v>
   <v>       0.39184055       0.36341267       0.24189411 </v>
   <v>       0.37314998       0.37925055       0.75304741 </v>
   <v>       0.39821738       0.84616895       0.25671441 </v>
   <v>       0.89862886       0.35460625       0.24365191 </v>
   <v>       0.89065653       0.36677167       0.74392931 </v>
   <v>       0.87720523       0.86528762       0.21390935 </v>
   <v>       0.87128874       0.86869286       0.73516949 </v>
   <v>       0.36985787       0.13633724       0.27223640 </v>
   <v>       0.36221017       0.10133890       0.75858502 </v>
   <v>       0.36113166       0.62168183       0.27250849 </v>
   <v>       0.38320288       0.63749337       0.74175297 </v>
   <v>       0.84477279       0.09585489       0.25557243 </v>
   <v>       0.86457323       0.11927952       0.73837638 </v>
   <v>       0.84407733       0.58636614       0.24786423 </v>
   <v>       0.87338195       0.62724572       0.72510993 </v>
   <v>       0.14298796       0.38820938       0.26095309 </v>
   <v>       0.14242115       0.88069864       0.26311954 </v>
   <v>       0.12823381       0.87411552       0.75445723 </v>
   <v>       0.63133884       0.38143768       0.75706892 </v>
   <v>       0.61991737       0.87221364       0.73106967 </v>
   <v>       0.37387944       0.37874006       0.00919739 </v>
   <v>       0.37460828       0.37196594       0.47632350 </v>
   <v>       0.37214722       0.87969598       0.00892893 </v>
   <v>       0.37044429       0.87532232       0.47709521 </v>
   <v>       0.87520037       0.37008185       0.01197013 </v>
   <v>       0.86532463       0.38062880       0.50137480 </v>
   <v>       0.87983109       0.87617978       0.00747686 </v>
   <v>       0.86757648       0.87257906       0.51274406 </v>
   <v>       0.12434470       0.12491856       0.98663209 </v>
   <v>       0.12391860       0.12517674       0.48743298 </v>
   <v>       0.12423719       0.63050695       0.98545062 </v>
   <v>       0.13096563       0.62744128       0.49976521 </v>
   <v>       0.62739781       0.11613638       0.99639834 </v>
   <v>       0.61621453       0.13006954       0.50019072 </v>
   <v>       0.63441217       0.61755550       0.50823040 </v>
   <v>       0.12344776       0.38015037       0.00247827 </v>
   <v>       0.12483078       0.36987766       0.48537227 </v>
   <v>       0.12613944       0.87502072       0.99311520 </v>
   <v>       0.12537940       0.87056289       0.49186434 </v>
   <v>       0.62744857       0.38150052       0.00125251 </v>
   <v>       0.62696867       0.83560602       0.02684244 </v>
   <v>       0.62204487       0.87192518       0.51383614 </v>
   <v>       0.37749304       0.12935031       0.98762649 </v>
   <v>       0.36844218       0.12566313       0.48627131 </v>
   <v>       0.38576292       0.62893940       0.00449511 </v>
   <v>       0.37348056       0.63218637       0.48906830 </v>
   <v>       0.87253031       0.12781789       0.01289021 </v>
   <v>       0.87421617       0.12445963       0.49690644 </v>
   <v>       0.85093717       0.62024552       0.01816418 </v>
   <v>       0.87976406       0.62921012       0.51345410 </v>
   <v>       0.02443040       0.01425129       0.12729492 </v>
   <v>       0.01280140       0.00075666       0.62123729 </v>
   <v>       0.01733165       0.51439468       0.12947885 </v>
   <v>       0.03288234       0.47645127       0.62895187 </v>
   <v>       0.50088443       0.01093877       0.13755457 </v>
   <v>       0.47318352       0.99793847       0.62267639 </v>
   <v>       0.54196065       0.53479969       0.14103408 </v>
   <v>       0.50067289       0.47332904       0.61192567 </v>
   <v>       0.98040090       0.97864813       0.37490016 </v>
   <v>       0.97938132       0.99896959       0.87150692 </v>
   <v>       0.99059939       0.50468595       0.37920700 </v>
   <v>       0.98352955       0.50316216       0.87026868 </v>
   <v>       0.52743368       0.99591888       0.36743362 </v>
   <v>       0.50812399       0.96891788       0.87318530 </v>
   <v>       0.54213170       0.49433206       0.36601563 </v>
   <v>       0.51535933       0.51949847       0.88081363 </v>
   <v>       0.23244267       0.27749317       0.86930345 </v>
   <v>       0.27577616       0.76462801       0.86813104 </v>
   <v>       0.72054121       0.26830105       0.36855711 </v>
   <v>       0.75871953       0.24920482       0.87869168 </v>
   <v>       0.72629656       0.76117052       0.37048318 </v>
   <v>       0.74337541       0.73583636       0.87435860 </v>
   <v>       0.24322021       0.23284236       0.12198426 </v>
   <v>       0.24572447       0.25872813       0.62843302 </v>
   <v>       0.24292738       0.73862835       0.12456079 </v>
   <v>       0.26738861       0.77932606       0.63159529 </v>
   <v>       0.70911979       0.25040057       0.14173456 </v>
   <v>       0.72929017       0.26369344       0.61818449 </v>
  </varray>
 </structure>
</modeling>
