       N       E                     dE             d eps       ncg     rms          rms(c)
DAV:   1    -0.111901173099E+04   -0.11190E+04   -0.79053E-02 13528   0.650E-01    0.289E-02
RMM:   2    -0.111901173087E+04    0.12570E-06   -0.64692E-05  7815   0.125E-02    0.284E-02
RMM:   3    -0.111901172930E+04    0.15647E-05   -0.22411E-05  6873   0.776E-03    0.755E-03
RMM:   4    -0.111901173088E+04   -0.15750E-05   -0.13596E-05  5921   0.493E-03    0.522E-03
RMM:   5    -0.111901173198E+04   -0.10985E-05   -0.86306E-06  5328   0.437E-03    0.362E-03
RMM:   6    -0.111901173264E+04   -0.66320E-06   -0.59874E-06  4511   0.345E-03    0.203E-03
RMM:   7    -0.111901173305E+04   -0.40833E-06   -0.41991E-06  4132   0.320E-03    0.118E-03
RMM:   8    -0.111901173325E+04   -0.19874E-06   -0.24900E-06  3147   0.268E-03
   1 F= -.11190117E+04 E0= -.11190117E+04  d E =-.111901E+04  mag=    40.0000
       N       E                     dE             d eps       ncg     rms          rms(c)
DAV:   1    -0.111901354873E+04   -0.18157E-02   -0.37551E+00 12848   0.228E+00    0.100E+00
RMM:   2    -0.111901948663E+04   -0.59379E-02   -0.13846E-01 12298   0.485E-01    0.940E-01
RMM:   3    -0.111901764533E+04    0.18413E-02   -0.78262E-03 13191   0.149E-01    0.582E-01
RMM:   4    -0.111901651123E+04    0.11341E-02   -0.46234E-03 13296   0.759E-02    0.337E-01
RMM:   5    -0.111901623976E+04    0.27148E-03   -0.93170E-04 11724   0.399E-02    0.162E-01
RMM:   6    -0.111901626259E+04   -0.22832E-04   -0.15544E-04  8344   0.146E-02    0.742E-02
RMM:   7    -0.111901627414E+04   -0.11552E-04   -0.57676E-05  7407   0.116E-02    0.535E-02
RMM:   8    -0.111901628505E+04   -0.10911E-04   -0.36453E-05  7263   0.832E-03
   2 F= -.11190163E+04 E0= -.11190163E+04  d E =-.455180E-02  mag=    40.0000
       N       E                     dE             d eps       ncg     rms          rms(c)
DAV:   1    -0.111901857778E+04   -0.23036E-02   -0.52589E-01 13104   0.852E-01    0.376E-01
RMM:   2    -0.111901938977E+04   -0.81199E-03   -0.19202E-02 12290   0.182E-01    0.355E-01
RMM:   3    -0.111901912880E+04    0.26097E-03   -0.10349E-03 12066   0.562E-02    0.221E-01
RMM:   4    -0.111901895902E+04    0.16977E-03   -0.65445E-04 11741   0.298E-02    0.128E-01
RMM:   5    -0.111901890926E+04    0.49763E-04   -0.12907E-04  8188   0.180E-02    0.598E-02
RMM:   6    -0.111901891023E+04   -0.96456E-06   -0.50506E-05  7174   0.877E-03    0.313E-02
RMM:   7    -0.111901890791E+04    0.23104E-05   -0.16581E-05  6644   0.660E-03    0.252E-02
RMM:   8    -0.111901890561E+04    0.23094E-05   -0.12006E-05  5930   0.392E-03
   3 F= -.11190189E+04 E0= -.11190189E+04  d E =-.717236E-02  mag=    40.0000
       N       E                     dE             d eps       ncg     rms          rms(c)
DAV:   1    -0.111901921196E+04   -0.30405E-03   -0.25995E+00 12792   0.192E+00    0.524E-01
RMM:   2    -0.111902595785E+04   -0.67459E-02   -0.68854E-02 12349   0.342E-01    0.360E-01
RMM:   3    -0.111902608303E+04   -0.12518E-03   -0.35230E-03 12317   0.113E-01    0.220E-01
RMM:   4    -0.111902589803E+04    0.18500E-03   -0.10985E-03 13031   0.371E-02    0.109E-01
RMM:   5    -0.111902587018E+04    0.27845E-04   -0.25831E-04  8672   0.208E-02    0.826E-02
RMM:   6    -0.111902587627E+04   -0.60871E-05   -0.60689E-05  7200   0.133E-02    0.276E-02
RMM:   7    -0.111902588152E+04   -0.52470E-05   -0.36262E-05  7126   0.774E-03    0.167E-02
RMM:   8    -0.111902588532E+04   -0.37974E-05   -0.19346E-05  6966   0.711E-03
   4 F= -.11190259E+04 E0= -.11190259E+04  d E =-.697971E-02  mag=    40.0000
       N       E                     dE             d eps       ncg     rms          rms(c)
DAV:   1    -0.111902176324E+04    0.41183E-02   -0.24997E+00 12744   0.188E+00    0.513E-01
RMM:   2    -0.111902831227E+04   -0.65490E-02   -0.66745E-02 12384   0.337E-01    0.353E-01
RMM:   3    -0.111902844263E+04   -0.13036E-03   -0.35120E-03 12513   0.112E-01    0.216E-01
RMM:   4    -0.111902827083E+04    0.17180E-03   -0.10802E-03 13384   0.365E-02    0.107E-01
RMM:   5    -0.111902824511E+04    0.25725E-04   -0.27561E-04  8875   0.208E-02    0.758E-02
RMM:   6    -0.111902825052E+04   -0.54149E-05   -0.64888E-05  7216   0.134E-02    0.291E-02
RMM:   7    -0.111902825583E+04   -0.53091E-05   -0.38428E-05  7156   0.792E-03    0.166E-02
RMM:   8    -0.111902825973E+04   -0.38970E-05   -0.21422E-05  7041   0.740E-03
   5 F= -.11190283E+04 E0= -.11190283E+04  d E =-.935412E-02  mag=    40.0000
       N       E                     dE             d eps       ncg     rms          rms(c)
DAV:   1    -0.111902908789E+04   -0.83206E-03   -0.17503E+00 12768   0.156E+00    0.409E-01
RMM:   2    -0.111903323565E+04   -0.41478E-02   -0.45441E-02 12393   0.273E-01    0.271E-01
RMM:   3    -0.111903325833E+04   -0.22680E-04   -0.23846E-03 12271   0.932E-02    0.167E-01
RMM:   4    -0.111903315065E+04    0.10768E-03   -0.73545E-04 12180   0.306E-02    0.104E-01
RMM:   5    -0.111903312350E+04    0.27149E-04   -0.14296E-04  7351   0.179E-02    0.614E-02
RMM:   6    -0.111903312970E+04   -0.62064E-05   -0.61692E-05  7175   0.114E-02    0.207E-02
RMM:   7    -0.111903313149E+04   -0.17871E-05   -0.32844E-05  7104   0.866E-03    0.172E-02
RMM:   8    -0.111903313223E+04   -0.74314E-06   -0.21184E-05  6772   0.640E-03
   6 F= -.11190331E+04 E0= -.11190331E+04  d E =-.487251E-02  mag=    40.0000
       N       E                     dE             d eps       ncg     rms          rms(c)
DAV:   1    -0.111902714984E+04    0.59817E-02   -0.36870E+00 12624   0.226E+00    0.591E-01
RMM:   2    -0.111903589998E+04   -0.87501E-02   -0.95677E-02 12404   0.396E-01    0.393E-01
RMM:   3    -0.111903595399E+04   -0.54007E-04   -0.49888E-03 12511   0.134E-01    0.242E-01
RMM:   4    -0.111903573643E+04    0.21756E-03   -0.16045E-03 14730   0.440E-02    0.148E-01
RMM:   5    -0.111903568210E+04    0.54328E-04   -0.32390E-04  9921   0.202E-02    0.899E-02
RMM:   6    -0.111903568951E+04   -0.74082E-05   -0.91237E-05  7319   0.126E-02    0.271E-02
RMM:   7    -0.111903569161E+04   -0.20982E-05   -0.43798E-05  7190   0.941E-03    0.205E-02
RMM:   8    -0.111903569284E+04   -0.12283E-05   -0.32366E-05  7047   0.740E-03
   7 F= -.11190357E+04 E0= -.11190357E+04  d E =-.743311E-02  mag=    40.0000
       N       E                     dE             d eps       ncg     rms          rms(c)
DAV:   1    -0.111903350415E+04    0.21875E-02   -0.29457E+00 12576   0.199E+00    0.447E-01
RMM:   2    -0.111904034675E+04   -0.68426E-02   -0.74464E-02 12382   0.346E-01    0.323E-01
RMM:   3    -0.111904034325E+04    0.35080E-05   -0.38196E-03 12314   0.116E-01    0.198E-01
RMM:   4    -0.111904017748E+04    0.16577E-03   -0.10221E-03 13193   0.358E-02    0.118E-01
RMM:   5    -0.111904012961E+04    0.47864E-04   -0.30770E-04  9706   0.209E-02    0.824E-02
RMM:   6    -0.111904013541E+04   -0.57927E-05   -0.78798E-05  7244   0.124E-02    0.253E-02
RMM:   7    -0.111904013825E+04   -0.28459E-05   -0.39529E-05  7152   0.833E-03    0.175E-02
RMM:   8    -0.111904013907E+04   -0.81628E-06   -0.24133E-05  6970   0.755E-03
   8 F= -.11190401E+04 E0= -.11190401E+04  d E =-.444623E-02  mag=    40.0000
       N       E                     dE             d eps       ncg     rms          rms(c)
DAV:   1    -0.111903699429E+04    0.31440E-02   -0.19342E+00 12808   0.161E+00    0.361E-01
RMM:   2    -0.111904150417E+04   -0.45099E-02   -0.49058E-02 12387   0.280E-01    0.262E-01
RMM:   3    -0.111904150062E+04    0.35459E-05   -0.25171E-03 12191   0.940E-02    0.161E-01
RMM:   4    -0.111904139137E+04    0.10926E-03   -0.66871E-04 12189   0.290E-02    0.954E-02
RMM:   5    -0.111904135749E+04    0.33879E-04   -0.19694E-04  7979   0.187E-02    0.732E-02
RMM:   6    -0.111904136254E+04   -0.50481E-05   -0.61022E-05  7189   0.121E-02    0.254E-02
RMM:   7    -0.111904136509E+04   -0.25582E-05   -0.32239E-05  7113   0.794E-03    0.173E-02
RMM:   8    -0.111904136594E+04   -0.84848E-06   -0.19895E-05  6884   0.702E-03
   9 F= -.11190414E+04 E0= -.11190414E+04  d E =-.567310E-02  mag=    40.0000
       N       E                     dE             d eps       ncg     rms          rms(c)
DAV:   1    -0.111903883119E+04    0.25339E-02   -0.33637E+00 12800   0.212E+00    0.485E-01
RMM:   2    -0.111904644185E+04   -0.76107E-02   -0.86536E-02 12456   0.371E-01    0.355E-01
RMM:   3    -0.111904629938E+04    0.14247E-03   -0.44185E-03 12566   0.124E-01    0.214E-01
RMM:   4    -0.111904611873E+04    0.18065E-03   -0.12774E-03 14425   0.399E-02    0.147E-01
RMM:   5    -0.111904606205E+04    0.56684E-04   -0.32102E-04  9615   0.219E-02    0.893E-02
RMM:   6    -0.111904607891E+04   -0.16858E-04   -0.10585E-04  7343   0.128E-02    0.298E-02
RMM:   7    -0.111904608850E+04   -0.95899E-05   -0.45577E-05  7152   0.954E-03    0.225E-02
RMM:   8    -0.111904609540E+04   -0.69036E-05   -0.30806E-05  6987   0.773E-03
  10 F= -.11190461E+04 E0= -.11190461E+04  d E =-.472946E-02  mag=    40.0000
       N       E                     dE             d eps       ncg     rms          rms(c)
DAV:   1    -0.111903859352E+04    0.74950E-02   -0.44211E+00 12608   0.243E+00    0.556E-01
RMM:   2    -0.111904864469E+04   -0.10051E-01   -0.11391E-01 12460   0.426E-01    0.406E-01
RMM:   3    -0.111904846196E+04    0.18273E-03   -0.57470E-03 12612   0.142E-01    0.245E-01
RMM:   4    -0.111904822883E+04    0.23313E-03   -0.16421E-03 14774   0.453E-02    0.169E-01
RMM:   5    -0.111904815153E+04    0.77299E-04   -0.40801E-04 10818   0.231E-02    0.103E-01
RMM:   6    -0.111904817153E+04   -0.19996E-04   -0.12521E-04  7478   0.134E-02    0.330E-02
RMM:   7    -0.111904818148E+04   -0.99572E-05   -0.52617E-05  7191   0.981E-03    0.241E-02
RMM:   8    -0.111904818893E+04   -0.74508E-05   -0.33347E-05  7038   0.786E-03
  11 F= -.11190482E+04 E0= -.11190482E+04  d E =-.682299E-02  mag=    40.0000
       N       E                     dE             d eps       ncg     rms          rms(c)
DAV:   1    -0.111904531447E+04    0.28670E-02   -0.32524E+00 12768   0.209E+00    0.451E-01
RMM:   2    -0.111905275911E+04   -0.74446E-02   -0.80710E-02 12503   0.356E-01    0.292E-01
RMM:   3    -0.111905273440E+04    0.24702E-04   -0.40056E-03 12425   0.118E-01    0.181E-01
RMM:   4    -0.111905257929E+04    0.15512E-03   -0.10919E-03 13497   0.370E-02    0.116E-01
RMM:   5    -0.111905254000E+04    0.39291E-04   -0.24688E-04  8973   0.194E-02    0.764E-02
RMM:   6    -0.111905254728E+04   -0.72860E-05   -0.85888E-05  7253   0.123E-02    0.240E-02
RMM:   7    -0.111905255008E+04   -0.27980E-05   -0.40001E-05  7136   0.884E-03    0.191E-02
RMM:   8    -0.111905255095E+04   -0.87130E-06   -0.27972E-05  6949   0.738E-03
  12 F= -.11190526E+04 E0= -.11190526E+04  d E =-.436202E-02  mag=    40.0000
       N       E                     dE             d eps       ncg     rms          rms(c)
DAV:   1    -0.111903949536E+04    0.13055E-01   -0.69488E+00 12560   0.305E+00    0.658E-01
RMM:   2    -0.111905538385E+04   -0.15888E-01   -0.17189E-01 12484   0.520E-01    0.425E-01
RMM:   3    -0.111905536400E+04    0.19849E-04   -0.85893E-03 12647   0.175E-01    0.263E-01
RMM:   4    -0.111905504738E+04    0.31663E-03   -0.23826E-03 15164   0.538E-02    0.168E-01
RMM:   5    -0.111905496214E+04    0.85238E-04   -0.54685E-04 12022   0.240E-02    0.107E-01
RMM:   6    -0.111905497369E+04   -0.11550E-04   -0.14679E-04  7681   0.137E-02    0.320E-02
RMM:   7    -0.111905497674E+04   -0.30500E-05   -0.54968E-05  7261   0.100E-02    0.193E-02
RMM:   8    -0.111905497794E+04   -0.12013E-05   -0.48079E-05  7179   0.820E-03
  13 F= -.11190550E+04 E0= -.11190550E+04  d E =-.678900E-02  mag=    40.0000
       N       E                     dE             d eps       ncg     rms          rms(c)
DAV:   1    -0.111904756200E+04    0.74147E-02   -0.51181E+00 12528   0.260E+00    0.562E-01
RMM:   2    -0.111905931240E+04   -0.11750E-01   -0.12774E-01 12427   0.447E-01    0.389E-01
RMM:   3    -0.111905926225E+04    0.50151E-04   -0.63894E-03 12465   0.150E-01    0.238E-01
RMM:   4    -0.111905902108E+04    0.24117E-03   -0.16916E-03 14670   0.450E-02    0.157E-01
RMM:   5    -0.111905893725E+04    0.83829E-04   -0.47290E-04 11554   0.226E-02    0.920E-02
RMM:   6    -0.111905894865E+04   -0.11394E-04   -0.11933E-04  7497   0.129E-02    0.270E-02
RMM:   7    -0.111905895070E+04   -0.20523E-05   -0.48459E-05  7196   0.899E-03    0.172E-02
RMM:   8    -0.111905895115E+04   -0.45280E-06   -0.39354E-05  7081   0.799E-03
  14 F= -.11190590E+04 E0= -.11190590E+04  d E =-.397321E-02  mag=    40.0000
       N       E                     dE             d eps       ncg     rms          rms(c)
DAV:   1    -0.111905608461E+04    0.28661E-02   -0.15835E+00 12656   0.145E+00    0.312E-01
RMM:   2    -0.111905975013E+04   -0.36655E-02   -0.39873E-02 12476   0.249E-01    0.215E-01
RMM:   3    -0.111905972217E+04    0.27951E-04   -0.19633E-03 12071   0.822E-02    0.132E-01
RMM:   4    -0.111905964274E+04    0.79432E-04   -0.49310E-04 11057   0.252E-02    0.872E-02
RMM:   5    -0.111905961589E+04    0.26853E-04   -0.13808E-04  7420   0.161E-02    0.610E-02
RMM:   6    -0.111905962056E+04   -0.46678E-05   -0.51621E-05  7155   0.105E-02    0.197E-02
RMM:   7    -0.111905962227E+04   -0.17095E-05   -0.27790E-05  7007   0.742E-03    0.154E-02
RMM:   8    -0.111905962281E+04   -0.54258E-06   -0.17922E-05  6767   0.619E-03
  15 F= -.11190596E+04 E0= -.11190596E+04  d E =-.464487E-02  mag=    40.0000
       N       E                     dE             d eps       ncg     rms          rms(c)
DAV:   1    -0.111905626590E+04    0.33564E-02   -0.35955E+00 12288   0.219E+00    0.500E-01
RMM:   2    -0.111906386436E+04   -0.75985E-02   -0.92796E-02 12511   0.385E-01    0.353E-01
RMM:   3    -0.111906355227E+04    0.31208E-03   -0.47543E-03 12775   0.127E-01    0.210E-01
RMM:   4    -0.111906334677E+04    0.20551E-03   -0.13458E-03 14305   0.410E-02    0.153E-01
RMM:   5    -0.111906326101E+04    0.85758E-04   -0.29334E-04  9705   0.209E-02    0.943E-02
RMM:   6    -0.111906327337E+04   -0.12357E-04   -0.10139E-04  7325   0.123E-02    0.331E-02
RMM:   7    -0.111906328194E+04   -0.85754E-05   -0.39158E-05  7166   0.906E-03    0.247E-02
RMM:   8    -0.111906328832E+04   -0.63799E-05   -0.26441E-05  7029   0.690E-03
  16 F= -.11190633E+04 E0= -.11190633E+04  d E =-.366551E-02  mag=    40.0000
       N       E                     dE             d eps       ncg     rms          rms(c)
DAV:   1    -0.111905635555E+04    0.69264E-02   -0.41239E+00 12288   0.234E+00    0.537E-01
RMM:   2    -0.111906508720E+04   -0.87317E-02   -0.10656E-01 12524   0.413E-01    0.377E-01
RMM:   3    -0.111906472838E+04    0.35882E-03   -0.54051E-03 12785   0.135E-01    0.225E-01
RMM:   4    -0.111906449766E+04    0.23071E-03   -0.15257E-03 14550   0.438E-02    0.161E-01
RMM:   5    -0.111906440239E+04    0.95276E-04   -0.34404E-04 10293   0.219E-02    0.103E-01
RMM:   6    -0.111906441705E+04   -0.14661E-04   -0.11336E-04  7391   0.129E-02    0.352E-02
RMM:   7    -0.111906442656E+04   -0.95081E-05   -0.45027E-05  7189   0.948E-03    0.250E-02
RMM:   8    -0.111906443392E+04   -0.73608E-05   -0.30168E-05  7088   0.732E-03
  17 F= -.11190644E+04 E0= -.11190644E+04  d E =-.481111E-02  mag=    40.0000
       N       E                     dE             d eps       ncg     rms          rms(c)
DAV:   1    -0.111906118485E+04    0.32417E-02   -0.26239E+00 12352   0.186E+00    0.370E-01
RMM:   2    -0.111906740844E+04   -0.62236E-02   -0.64457E-02 12504   0.318E-01    0.240E-01
RMM:   3    -0.111906742724E+04   -0.18792E-04   -0.31525E-03 12369   0.105E-01    0.150E-01
RMM:   4    -0.111906729553E+04    0.13171E-03   -0.80652E-04 12599   0.314E-02    0.807E-02
RMM:   5    -0.111906728219E+04    0.13342E-04   -0.20485E-04  8251   0.180E-02    0.434E-02
RMM:   6    -0.111906728749E+04   -0.53010E-05   -0.53523E-05  7180   0.109E-02    0.180E-02
RMM:   7    -0.111906729060E+04   -0.31180E-05   -0.32598E-05  7017   0.733E-03    0.126E-02
RMM:   8    -0.111906729220E+04   -0.15942E-05   -0.21125E-05  6748   0.684E-03
  18 F= -.11190673E+04 E0= -.11190673E+04  d E =-.285828E-02  mag=    40.0000
       N       E                     dE             d eps       ncg     rms          rms(c)
DAV:   1    -0.111904608771E+04    0.21203E-01   -0.99962E+00 12288   0.363E+00    0.722E-01
RMM:   2    -0.111906969935E+04   -0.23612E-01   -0.24462E-01 12483   0.620E-01    0.468E-01
RMM:   3    -0.111906980944E+04   -0.11008E-03   -0.12025E-02 12600   0.207E-01    0.294E-01
RMM:   4    -0.111906931459E+04    0.49485E-03   -0.31266E-03 15099   0.609E-02    0.159E-01
RMM:   5    -0.111906926776E+04    0.46835E-04   -0.83736E-04 12965   0.278E-02    0.735E-02
RMM:   6    -0.111906927943E+04   -0.11672E-04   -0.15345E-04  7834   0.138E-02    0.285E-02
RMM:   7    -0.111906928362E+04   -0.41891E-05   -0.60540E-05  7398   0.904E-03    0.177E-02
RMM:   8    -0.111906928795E+04   -0.43333E-05   -0.68766E-05  7193   0.882E-03
  19 F= -.11190693E+04 E0= -.11190693E+04  d E =-.485403E-02  mag=    40.0000
       N       E                     dE             d eps       ncg     rms          rms(c)
DAV:   1    -0.111906132580E+04    0.79578E-02   -0.49832E+00 12288   0.255E+00    0.531E-01
RMM:   2    -0.111907276558E+04   -0.11440E-01   -0.12372E-01 12593   0.439E-01    0.350E-01
RMM:   3    -0.111907264885E+04    0.11672E-03   -0.59906E-03 12763   0.142E-01    0.223E-01
RMM:   4    -0.111907239625E+04    0.25260E-03   -0.16212E-03 14503   0.447E-02    0.139E-01
RMM:   5    -0.111907233305E+04    0.63206E-04   -0.42402E-04 11352   0.220E-02    0.967E-02
RMM:   6    -0.111907234179E+04   -0.87475E-05   -0.10685E-04  7469   0.122E-02    0.270E-02
RMM:   7    -0.111907234396E+04   -0.21635E-05   -0.44154E-05  7198   0.831E-03    0.168E-02
RMM:   8    -0.111907234411E+04   -0.14856E-06   -0.36758E-05  7071   0.762E-03
  20 F= -.11190723E+04 E0= -.11190723E+04  d E =-.305616E-02  mag=    40.0000
       N       E                     dE             d eps       ncg     rms          rms(c)
DAV:   1    -0.111906564740E+04    0.66966E-02   -0.33517E+00 12352   0.209E+00    0.435E-01
RMM:   2    -0.111907333789E+04   -0.76905E-02   -0.83189E-02 12563   0.360E-01    0.287E-01
RMM:   3    -0.111907327076E+04    0.67130E-04   -0.40495E-03 12501   0.117E-01    0.182E-01
RMM:   4    -0.111907310157E+04    0.16920E-03   -0.10723E-03 13550   0.368E-02    0.113E-01
RMM:   5    -0.111907305823E+04    0.43331E-04   -0.28194E-04  9875   0.198E-02    0.844E-02
RMM:   6    -0.111907306430E+04   -0.60655E-05   -0.78045E-05  7260   0.116E-02    0.230E-02
RMM:   7    -0.111907306640E+04   -0.21023E-05   -0.35622E-05  7150   0.795E-03    0.163E-02
RMM:   8    -0.111907306662E+04   -0.21477E-06   -0.26783E-05  7035   0.730E-03
  21 F= -.11190731E+04 E0= -.11190731E+04  d E =-.377867E-02  mag=    40.0000
       N       E                     dE             d eps       ncg     rms          rms(c)
DAV:   1    -0.111906773034E+04    0.53361E-02   -0.34101E+00 12832   0.211E+00    0.416E-01
RMM:   2    -0.111907582478E+04   -0.80944E-02   -0.83458E-02 12496   0.360E-01    0.268E-01
RMM:   3    -0.111907583411E+04   -0.93309E-05   -0.41354E-03 12367   0.119E-01    0.165E-01
RMM:   4    -0.111907566542E+04    0.16869E-03   -0.10392E-03 13205   0.351E-02    0.936E-02
RMM:   5    -0.111907563588E+04    0.29543E-04   -0.28828E-04  9619   0.192E-02    0.505E-02
RMM:   6    -0.111907564399E+04   -0.81089E-05   -0.67978E-05  7226   0.109E-02    0.206E-02
RMM:   7    -0.111907564792E+04   -0.39393E-05   -0.34490E-05  7149   0.770E-03    0.144E-02
RMM:   8    -0.111907565075E+04   -0.28220E-05   -0.24369E-05  6990   0.717E-03
  22 F= -.11190757E+04 E0= -.11190757E+04  d E =-.258413E-02  mag=    40.0000
       N       E                     dE             d eps       ncg     rms          rms(c)
DAV:   1    -0.111907166117E+04    0.39868E-02   -0.20109E+00 12816   0.162E+00    0.319E-01
RMM:   2    -0.111907645090E+04   -0.47897E-02   -0.49347E-02 12513   0.277E-01    0.206E-01
RMM:   3    -0.111907645126E+04   -0.36001E-06   -0.24377E-03 12196   0.913E-02    0.127E-01
RMM:   4    -0.111907634995E+04    0.10131E-03   -0.60399E-04 11805   0.272E-02    0.730E-02
RMM:   5    -0.111907633161E+04    0.18341E-04   -0.15577E-04  7613   0.167E-02    0.479E-02
RMM:   6    -0.111907633831E+04   -0.67002E-05   -0.50737E-05  7171   0.104E-02    0.194E-02
RMM:   7    -0.111907634167E+04   -0.33647E-05   -0.27418E-05  7077   0.721E-03    0.146E-02
RMM:   8    -0.111907634375E+04   -0.20801E-05   -0.18149E-05  6853   0.628E-03
  23 F= -.11190763E+04 E0= -.11190763E+04  d E =-.327713E-02  mag=    40.0000
       N       E                     dE             d eps       ncg     rms          rms(c)
DAV:   1    -0.111907326557E+04    0.30761E-02   -0.22407E+00 12656   0.172E+00    0.414E-01
RMM:   2    -0.111907873101E+04   -0.54654E-02   -0.56387E-02 12453   0.305E-01    0.272E-01
RMM:   3    -0.111907881418E+04   -0.83172E-04   -0.29310E-03 12396   0.988E-02    0.165E-01
RMM:   4    -0.111907867182E+04    0.14236E-03   -0.73792E-04 12426   0.309E-02    0.958E-02
RMM:   5    -0.111907863359E+04    0.38235E-04   -0.26147E-04  8895   0.204E-02    0.710E-02
RMM:   6    -0.111907863807E+04   -0.44780E-05   -0.63254E-05  7203   0.124E-02    0.244E-02
RMM:   7    -0.111907864257E+04   -0.44980E-05   -0.31918E-05  7124   0.770E-03    0.165E-02
RMM:   8    -0.111907864552E+04   -0.29512E-05   -0.19382E-05  6950   0.721E-03
  24 F= -.11190786E+04 E0= -.11190786E+04  d E =-.230177E-02  mag=    40.0000
       N       E                     dE             d eps       ncg     rms          rms(c)
DAV:   1    -0.111907773454E+04    0.90803E-03   -0.50130E-01 12880   0.816E-01    0.196E-01
RMM:   2    -0.111907897379E+04   -0.12393E-02   -0.12755E-02 12494   0.145E-01    0.130E-01
RMM:   3    -0.111907898909E+04   -0.15294E-04   -0.64839E-04 10612   0.465E-02    0.794E-02
RMM:   4    -0.111907895676E+04    0.32327E-04   -0.13958E-04  7366   0.149E-02    0.470E-02
RMM:   5    -0.111907895059E+04    0.61737E-05   -0.62401E-05  7145   0.108E-02    0.320E-02
RMM:   6    -0.111907895313E+04   -0.25448E-05   -0.22771E-05  7024   0.758E-03    0.179E-02
RMM:   7    -0.111907895486E+04   -0.17328E-05   -0.12647E-05  6708   0.488E-03    0.102E-02
RMM:   8    -0.111907895590E+04   -0.10342E-05   -0.72647E-06  5943   0.444E-03
  25 F= -.11190790E+04 E0= -.11190790E+04  d E =-.261215E-02  mag=    40.0000
       N       E                     dE             d eps       ncg     rms          rms(c)
DAV:   1    -0.111907551099E+04    0.34439E-02   -0.21828E+00 12640   0.172E+00    0.382E-01
RMM:   2    -0.111908089179E+04   -0.53808E-02   -0.54324E-02 12453   0.298E-01    0.248E-01
RMM:   3    -0.111908097644E+04   -0.84650E-04   -0.27451E-03 12296   0.998E-02    0.150E-01
RMM:   4    -0.111908086013E+04    0.11631E-03   -0.71669E-04 12050   0.299E-02    0.792E-02
RMM:   5    -0.111908084163E+04    0.18495E-04   -0.17127E-04  7609   0.178E-02    0.401E-02
RMM:   6    -0.111908084799E+04   -0.63618E-05   -0.52648E-05  7177   0.112E-02    0.203E-02
RMM:   7    -0.111908085116E+04   -0.31686E-05   -0.29988E-05  7023   0.745E-03    0.144E-02
RMM:   8    -0.111908085306E+04   -0.18962E-05   -0.18160E-05  6730   0.654E-03
  26 F= -.11190809E+04 E0= -.11190809E+04  d E =-.189716E-02  mag=    40.0000
