       N       E                     dE             d eps       ncg     rms          rms(c)
DAV:   1    -0.108915508407E+04   -0.10892E+04   -0.32099E-02 13232   0.420E-01    0.402E-02
RMM:   2    -0.108915508211E+04    0.19625E-05   -0.36597E-05  6847   0.100E-02    0.709E-02
RMM:   3    -0.108915508210E+04    0.97643E-08   -0.90571E-06  6299   0.582E-03    0.615E-03
RMM:   4    -0.108915508198E+04    0.11141E-06   -0.16914E-06  3166   0.215E-03    0.308E-03
RMM:   5    -0.108915508202E+04   -0.33659E-07   -0.94917E-07  2908   0.236E-03    0.349E-03
RMM:   6    -0.108915508205E+04   -0.27168E-07   -0.51147E-07  2336   0.194E-03    0.124E-03
RMM:   7    -0.108915508205E+04   -0.23138E-08   -0.30844E-07  2017   0.192E-03    0.660E-04
RMM:   8    -0.108915508206E+04   -0.13941E-07   -0.87992E-08  1708   0.179E-03
   1 F= -.10891551E+04 E0= -.10891551E+04  d E =-.108916E+04  mag=    60.0000
       N       E                     dE             d eps       ncg     rms          rms(c)
DAV:   1    -0.108915541250E+04   -0.33045E-03   -0.25110E-01 12848   0.600E-01    0.245E-01
RMM:   2    -0.108915594832E+04   -0.53582E-03   -0.80065E-03 12327   0.122E-01    0.166E-01
RMM:   3    -0.108915592121E+04    0.27106E-04   -0.45530E-04 10264   0.406E-02    0.100E-01
RMM:   4    -0.108915587855E+04    0.42661E-04   -0.15824E-04  7388   0.166E-02    0.644E-02
RMM:   5    -0.108915587321E+04    0.53419E-05   -0.55383E-05  7138   0.115E-02    0.458E-02
RMM:   6    -0.108915587661E+04   -0.33997E-05   -0.24840E-05  7020   0.746E-03    0.249E-02
RMM:   7    -0.108915588016E+04   -0.35504E-05   -0.12685E-05  6550   0.493E-03    0.117E-02
RMM:   8    -0.108915588287E+04   -0.27131E-05   -0.82410E-06  6049   0.422E-03
   2 F= -.10891559E+04 E0= -.10891559E+04  d E =-.800809E-03  mag=    60.0000
