<?xml version="1.0" encoding="ISO-8859-1"?>
<modeling>
 <generator>
  <i name="program" type="string">vasp </i>
  <i name="version" type="string">5.4.1  </i>
  <i name="subversion" type="string">05Feb16 (build Jan 25 2017 20:16:33) complex                          parallel </i>
  <i name="platform" type="string">BWXE6 </i>
  <i name="date" type="string">2019 08 12 </i>
  <i name="time" type="string">20:39:06 </i>
 </generator>
 <incar>
  <i type="string" name="SYSTEM"> STF</i>
  <i type="string" name="PREC">normal</i>
  <i type="string" name="ALGO"> Fast</i>
  <i type="int" name="ISPIN">     2</i>
  <i type="int" name="NELM">    40</i>
  <i type="int" name="NELMIN">     8</i>
  <i type="int" name="IBRION">     2</i>
  <i name="EDIFF">      0.00010000</i>
  <i name="EDIFFG">     -0.03000000</i>
  <i type="int" name="NSW">    30</i>
  <i type="int" name="ISIF">     3</i>
  <i name="ENCUT">    520.00000000</i>
  <i type="int" name="NBANDS">   768</i>
  <v name="MAGMOM">      0.60000000      0.60000000      0.60000000      0.60000000      0.60000000      0.60000000      0.60000000      0.60000000      0.60000000      0.60000000      0.60000000      0.60000000      0.60000000      0.60000000      0.60000000      0.60000000      0.60000000      0.60000000      0.60000000      0.60000000
      0.60000000      0.60000000      0.60000000      0.60000000      0.60000000      0.60000000      0.60000000      0.60000000      0.60000000      0.60000000      0.60000000      0.60000000      0.60000000      0.60000000      0.60000000      0.60000000      0.60000000      0.60000000      0.60000000      0.60000000
      0.60000000      0.60000000      0.60000000      0.60000000      0.60000000      0.60000000      0.60000000      0.60000000      0.60000000      0.60000000      0.60000000      0.60000000      5.00000000      5.00000000      5.00000000      5.00000000      5.00000000      5.00000000      5.00000000      5.00000000
      5.00000000      5.00000000      5.00000000      5.00000000      0.60000000      0.60000000      0.60000000      0.60000000      0.60000000      0.60000000      0.60000000      0.60000000      0.60000000      0.60000000      0.60000000      0.60000000      0.60000000      0.60000000      0.60000000      0.60000000
      0.60000000      0.60000000      0.60000000      0.60000000      0.60000000      0.60000000      0.60000000      0.60000000      0.60000000      0.60000000      0.60000000      0.60000000      0.60000000      0.60000000      0.60000000      0.60000000      0.60000000      0.60000000      0.60000000      0.60000000
      0.60000000      0.60000000      0.60000000      0.60000000      0.60000000      0.60000000      0.60000000      0.60000000      0.60000000      0.60000000      0.60000000      0.60000000      0.60000000      0.60000000      0.60000000      0.60000000      0.60000000      0.60000000      0.60000000      0.60000000
      0.60000000      0.60000000      0.60000000      0.60000000      0.60000000      0.60000000      0.60000000      0.60000000      0.60000000      0.60000000      0.60000000      0.60000000      0.60000000      0.60000000      0.60000000      0.60000000      0.60000000      0.60000000      0.60000000      0.60000000
      0.60000000      0.60000000      0.60000000      0.60000000      0.60000000      0.60000000      0.60000000      0.60000000      0.60000000      0.60000000      0.60000000      0.60000000      0.60000000      0.60000000</v>
  <i type="string" name="LREAL"> Auto</i>
  <i type="int" name="ISMEAR">     0</i>
  <i name="SIGMA">      0.05000000</i>
  <i type="int" name="LMAXMIX">     4</i>
  <v type="int" name="KPOINT_BSE">    -1     0     0     0</v>
  <i type="int" name="NELM">    40</i>
  <i type="logical" name="LDAU"> T  </i>
  <v type="int" name="LDAUTYPE">     2</v>
  <v type="int" name="LDAUL">     0     2     2     0</v>
  <v name="LDAUU">      0.00000000      3.00000000      5.00000000      0.00000000</v>
  <v name="LDAUJ">      0.00000000      0.00000000      0.00000000      0.00000000</v>
  <i type="int" name="LDAUPRINT">     1</i>
 </incar>
 <kpoints>
  <generation param="Monkhorst-Pack">
   <v type="int" name="divisions">       2        2        2 </v>
   <v name="usershift">      0.00000000       0.00000000       0.00000000 </v>
   <v name="genvec1">      0.50000000       0.00000000       0.00000000 </v>
   <v name="genvec2">      0.00000000       0.50000000       0.00000000 </v>
   <v name="genvec3">      0.00000000       0.00000000       0.50000000 </v>
   <v name="shift">      0.50000000       0.50000000       0.50000000 </v>
  </generation>
  <varray name="kpointlist" >
   <v>       0.25000000       0.25000000       0.25000000 </v>
   <v>      -0.25000000       0.25000000       0.25000000 </v>
   <v>       0.25000000      -0.25000000       0.25000000 </v>
   <v>      -0.25000000      -0.25000000       0.25000000 </v>
  </varray>
  <varray name="weights" >
   <v>       0.25000000 </v>
   <v>       0.25000000 </v>
   <v>       0.25000000 </v>
   <v>       0.25000000 </v>
  </varray>
 </kpoints>
 <parameters>
  <separator name="general" >
   <i type="string" name="SYSTEM">STF</i>
   <i type="logical" name="LCOMPAT"> F  </i>
  </separator>
  <separator name="electronic" >
   <i type="string" name="PREC">normal</i>
   <i name="ENMAX">    520.00000000</i>
   <i name="ENAUG">    605.39200000</i>
   <i name="EDIFF">      0.00010000</i>
   <i type="int" name="IALGO">    68</i>
   <i type="int" name="IWAVPR">    11</i>
   <i type="int" name="NBANDS">   768</i>
   <i name="NELECT">   1036.00000000</i>
   <i type="int" name="TURBO">     0</i>
   <i type="int" name="IRESTART">     0</i>
   <i type="int" name="NREBOOT">     0</i>
   <i type="int" name="NMIN">     0</i>
   <i name="EREF">      0.00000000</i>
   <separator name="electronic smearing" >
    <i type="int" name="ISMEAR">     0</i>
    <i name="SIGMA">      0.05000000</i>
    <i name="KSPACING">      0.50000000</i>
    <i type="logical" name="KGAMMA"> T  </i>
   </separator>
   <separator name="electronic projectors" >
    <i type="logical" name="LREAL"> T  </i>
    <v name="ROPT">     -0.00050000     -0.00050000     -0.00050000     -0.00050000</v>
    <i type="int" name="LMAXPAW">  -100</i>
    <i type="int" name="LMAXMIX">     4</i>
    <i type="logical" name="NLSPLINE"> F  </i>
   </separator>
   <separator name="electronic startup" >
    <i type="int" name="ISTART">     1</i>
    <i type="int" name="ICHARG">     0</i>
    <i type="int" name="INIWAV">     1</i>
   </separator>
   <separator name="electronic spin" >
    <i type="int" name="ISPIN">     2</i>
    <i type="logical" name="LNONCOLLINEAR"> F  </i>
    <v name="MAGMOM">      0.60000000      0.60000000      0.60000000      0.60000000      0.60000000      0.60000000      0.60000000      0.60000000      0.60000000      0.60000000      0.60000000      0.60000000      0.60000000      0.60000000      0.60000000      0.60000000      0.60000000      0.60000000      0.60000000      0.60000000
      0.60000000      0.60000000      0.60000000      0.60000000      0.60000000      0.60000000      0.60000000      0.60000000      0.60000000      0.60000000      0.60000000      0.60000000      0.60000000      0.60000000      0.60000000      0.60000000      0.60000000      0.60000000      0.60000000      0.60000000
      0.60000000      0.60000000      0.60000000      0.60000000      0.60000000      0.60000000      0.60000000      0.60000000      0.60000000      0.60000000      0.60000000      0.60000000      5.00000000      5.00000000      5.00000000      5.00000000      5.00000000      5.00000000      5.00000000      5.00000000
      5.00000000      5.00000000      5.00000000      5.00000000      0.60000000      0.60000000      0.60000000      0.60000000      0.60000000      0.60000000      0.60000000      0.60000000      0.60000000      0.60000000      0.60000000      0.60000000      0.60000000      0.60000000      0.60000000      0.60000000
      0.60000000      0.60000000      0.60000000      0.60000000      0.60000000      0.60000000      0.60000000      0.60000000      0.60000000      0.60000000      0.60000000      0.60000000      0.60000000      0.60000000      0.60000000      0.60000000      0.60000000      0.60000000      0.60000000      0.60000000
      0.60000000      0.60000000      0.60000000      0.60000000      0.60000000      0.60000000      0.60000000      0.60000000      0.60000000      0.60000000      0.60000000      0.60000000      0.60000000      0.60000000      0.60000000      0.60000000      0.60000000      0.60000000      0.60000000      0.60000000
      0.60000000      0.60000000      0.60000000      0.60000000      0.60000000      0.60000000      0.60000000      0.60000000      0.60000000      0.60000000      0.60000000      0.60000000      0.60000000      0.60000000      0.60000000      0.60000000      0.60000000      0.60000000      0.60000000      0.60000000
      0.60000000      0.60000000      0.60000000      0.60000000      0.60000000      0.60000000      0.60000000      0.60000000      0.60000000      0.60000000      0.60000000      0.60000000      0.60000000      0.60000000</v>
    <i name="NUPDOWN">     -1.00000000</i>
    <i type="logical" name="LSORBIT"> F  </i>
    <v name="SAXIS">      0.00000000      0.00000000      1.00000000</v>
    <i type="logical" name="LSPIRAL"> F  </i>
    <v name="QSPIRAL">      0.00000000      0.00000000      0.00000000</v>
    <i type="logical" name="LZEROZ"> F  </i>
   </separator>
   <separator name="electronic exchange-correlation" >
    <i type="logical" name="LASPH"> F  </i>
    <i type="logical" name="LMETAGGA"> F  </i>
   </separator>
   <separator name="electronic convergence" >
    <i type="int" name="NELM">    40</i>
    <i type="int" name="NELMDL">     0</i>
    <i type="int" name="NELMIN">     8</i>
    <i name="ENINI">    520.00000000</i>
    <separator name="electronic convergence detail" >
     <i type="logical" name="LDIAG"> T  </i>
     <i type="logical" name="LSUBROT"> F  </i>
     <i name="WEIMIN">      0.00100000</i>
     <i name="EBREAK">      0.00000003</i>
     <i name="DEPER">      0.30000000</i>
     <i type="int" name="NRMM">     4</i>
     <i name="TIME">      0.40000000</i>
    </separator>
   </separator>
   <separator name="electronic mixer" >
    <i name="AMIX">      0.40000000</i>
    <i name="BMIX">      1.00000000</i>
    <i name="AMIN">      0.10000000</i>
    <i name="AMIX_MAG">      1.60000000</i>
    <i name="BMIX_MAG">      1.00000000</i>
    <separator name="electronic mixer details" >
     <i type="int" name="IMIX">     4</i>
     <i type="logical" name="MIXFIRST"> F  </i>
     <i type="int" name="MAXMIX">   -45</i>
     <i name="WC">    100.00000000</i>
     <i type="int" name="INIMIX">     1</i>
     <i type="int" name="MIXPRE">     1</i>
     <i type="int" name="MREMOVE">     5</i>
    </separator>
   </separator>
   <separator name="electronic dipolcorrection" >
    <i type="logical" name="LDIPOL"> F  </i>
    <i type="logical" name="LMONO"> F  </i>
    <i type="int" name="IDIPOL">     0</i>
    <i name="EPSILON">      1.00000000</i>
    <v name="DIPOL">   -100.00000000   -100.00000000   -100.00000000</v>
    <i name="EFIELD">      0.00000000</i>
   </separator>
  </separator>
  <separator name="grids" >
   <i type="int" name="NGX">    64</i>
   <i type="int" name="NGY">    64</i>
   <i type="int" name="NGZ">    90</i>
   <i type="int" name="NGXF">   128</i>
   <i type="int" name="NGYF">   128</i>
   <i type="int" name="NGZF">   180</i>
   <i type="logical" name="ADDGRID"> F  </i>
  </separator>
  <separator name="ionic" >
   <i type="int" name="NSW">    30</i>
   <i type="int" name="IBRION">     2</i>
   <i type="int" name="ISIF">     3</i>
   <i name="PSTRESS">      0.00000000</i>
   <i name="EDIFFG">     -0.03000000</i>
   <i type="int" name="NFREE">     1</i>
   <i name="POTIM">      0.50000000</i>
   <i name="SMASS">     -3.00000000</i>
   <i name="SCALEE">      1.00000000</i>
  </separator>
  <separator name="ionic md" >
   <i name="TEBEG">      0.00010000</i>
   <i name="TEEND">      0.00010000</i>
   <i type="int" name="NBLOCK">     1</i>
   <i type="int" name="KBLOCK">    30</i>
   <i type="int" name="NPACO">   256</i>
   <i name="APACO">     16.00000000</i>
  </separator>
  <separator name="symmetry" >
   <i type="int" name="ISYM">     2</i>
   <i name="SYMPREC">      0.00001000</i>
  </separator>
  <separator name="dos" >
   <i type="logical" name="LORBIT"> F  </i>
   <v name="RWIGS">     -1.00000000     -1.00000000     -1.00000000     -1.00000000</v>
   <i type="int" name="NEDOS">   301</i>
   <i name="EMIN">     10.00000000</i>
   <i name="EMAX">    -10.00000000</i>
   <i name="EFERMI">      0.00000000</i>
  </separator>
  <separator name="writing" >
   <i type="int" name="NWRITE">     2</i>
   <i type="logical" name="LWAVE"> T  </i>
   <i type="logical" name="LCHARG"> T  </i>
   <i type="logical" name="LPARD"> F  </i>
   <i type="logical" name="LVTOT"> F  </i>
   <i type="logical" name="LVHAR"> F  </i>
   <i type="logical" name="LELF"> F  </i>
   <i type="logical" name="LOPTICS"> F  </i>
   <v name="STM">      0.00000000      0.00000000      0.00000000      0.00000000      0.00000000      0.00000000      0.00000000</v>
  </separator>
  <separator name="performance" >
   <i type="int" name="NPAR">     2</i>
   <i type="int" name="NSIM">     4</i>
   <i type="int" name="NBLK">    -1</i>
   <i type="logical" name="LPLANE"> T  </i>
   <i type="logical" name="LSCALAPACK"> T  </i>
   <i type="logical" name="LSCAAWARE"> F  </i>
   <i type="logical" name="LSCALU"> F  </i>
   <i type="logical" name="LASYNC"> F  </i>
   <i type="logical" name="LORBITALREAL"> F  </i>
  </separator>
  <separator name="miscellaneous" >
   <i type="int" name="IDIOT">     3</i>
   <i type="logical" name="LMUSIC"> F  </i>
   <v name="POMASS">     87.62000000     47.88000000     55.84700000     16.00000000</v>
   <v name="DARWINR">      0.00000000      0.00000000      0.00000000      0.00000000</v>
   <v name="DARWINV">      1.00000000      1.00000000      1.00000000      1.00000000</v>
   <i type="logical" name="LCORR"> T  </i>
  </separator>
  <i type="logical" name="GGA_COMPAT"> T  </i>
  <i type="logical" name="LBERRY"> F  </i>
  <i type="int" name="ICORELEVEL">     0</i>
  <i type="logical" name="LDAU"> T  </i>
  <v type="int" name="LDAUTYPE">     2</v>
  <v type="int" name="LDAUL">     0</v>
  <v name="LDAUU">      0.00000000</v>
  <v name="LDAUJ">      0.00000000</v>
  <i type="int" name="LDAUPRINT">     1</i>
  <i type="int" name="I_CONSTRAINED_M">     0</i>
  <separator name="electronic exchange-correlation" >
   <i type="string" name="GGA">--</i>
   <i type="int" name="VOSKOWN">     0</i>
   <i type="logical" name="LHFCALC"> F  </i>
   <i type="string" name="PRECFOCK"></i>
   <i type="logical" name="LSYMGRAD"> F  </i>
   <i type="logical" name="LHFONE"> F  </i>
   <i type="logical" name="LRHFCALC"> F  </i>
   <i type="logical" name="LTHOMAS"> F  </i>
   <i type="logical" name="LMODELHF"> F  </i>
   <i name="ENCUT4O">     -1.00000000</i>
   <i type="int" name="EXXOEP">     0</i>
   <i type="int" name="FOURORBIT">     0</i>
   <i name="AEXX">      0.00000000</i>
   <i name="HFALPHA">      0.00000000</i>
   <i name="MCALPHA">      0.00000000</i>
   <i name="ALDAX">      1.00000000</i>
   <i name="AGGAX">      1.00000000</i>
   <i name="ALDAC">      1.00000000</i>
   <i name="AGGAC">      1.00000000</i>
   <i type="int" name="NKREDX">     1</i>
   <i type="int" name="NKREDY">     1</i>
   <i type="int" name="NKREDZ">     1</i>
   <i type="logical" name="SHIFTRED"> F  </i>
   <i type="logical" name="ODDONLY"> F  </i>
   <i type="logical" name="EVENONLY"> F  </i>
   <i type="int" name="LMAXFOCK">     0</i>
   <i type="int" name="NMAXFOCKAE">     0</i>
   <i type="logical" name="LFOCKAEDFT"> F  </i>
   <i name="HFSCREEN">      0.00000000</i>
   <i name="HFSCREENC">      0.00000000</i>
   <i type="int" name="NBANDSGWLOW">     0</i>
  </separator>
  <separator name="vdW DFT" >
   <i type="logical" name="LUSE_VDW"> F  </i>
   <i name="Zab_VDW">     -0.84910000</i>
   <i name="PARAM1">      0.12340000</i>
   <i name="PARAM2">      1.00000000</i>
   <i name="PARAM3">      0.00000000</i>
  </separator>
  <separator name="model GW" >
   <i type="int" name="MODEL_GW">     0</i>
   <i name="MODEL_EPS0">      7.84271453</i>
   <i name="MODEL_ALPHA">      1.00000000</i>
  </separator>
  <separator name="linear response parameters" >
   <i type="logical" name="LEPSILON"> F  </i>
   <i type="logical" name="LRPA"> F  </i>
   <i type="logical" name="LNABLA"> F  </i>
   <i type="logical" name="LVEL"> F  </i>
   <i type="int" name="KINTER">     0</i>
   <i name="CSHIFT">      0.10000000</i>
   <i name="OMEGAMAX">     -1.00000000</i>
   <i name="DEG_THRESHOLD">      0.00200000</i>
  </separator>
  <separator name="orbital magnetization" >
   <i type="logical" name="NUCIND"> F  </i>
   <v name="MAGPOS">      0.00000000      0.00000000      0.00000000</v>
   <i type="logical" name="LNICSALL"> T  </i>
   <i type="logical" name="ORBITALMAG"> F  </i>
   <i type="logical" name="LMAGBLOCH"> F  </i>
   <i type="logical" name="LCHIMAG"> F  </i>
   <i type="logical" name="LGAUGE"> T  </i>
   <i type="int" name="MAGATOM">     0</i>
   <v name="MAGDIPOL">      0.00000000      0.00000000      0.00000000</v>
   <v name="AVECCONST">      0.00000000      0.00000000      0.00000000</v>
  </separator>
  <separator name="response functions" >
   <i type="logical" name="LADDER"> F  </i>
   <i type="logical" name="LFXC"> F  </i>
   <i type="logical" name="LHARTREE"> T  </i>
   <i type="int" name="IBSE">     0</i>
   <v type="int" name="KPOINT">    -1     0     0     0</v>
   <i type="logical" name="LTCTE"> F  </i>
   <i type="logical" name="LTETE"> F  </i>
   <i type="logical" name="LTRIPLET"> F  </i>
   <i type="logical" name="LFXCEPS"> F  </i>
   <i type="logical" name="LFXHEG"> F  </i>
   <i type="int" name="NATURALO">     0</i>
   <i type="logical" name="L2ORDER"> F  </i>
   <i type="logical" name="LUSEW"> F  </i>
   <i name="ENCUTGW">     -2.00000000</i>
   <i name="ENCUTGWSOFT">     -2.00000000</i>
   <i name="ENCUTLF">     -1.00000000</i>
   <i type="int" name="LMAXMP2">    -1</i>
   <i name="SCISSOR">      0.00000000</i>
   <i type="int" name="NOMEGA">     0</i>
   <i type="int" name="NOMEGAR">     0</i>
   <i type="int" name="NBANDSGW">    -1</i>
   <i type="int" name="NBANDSO">    -1</i>
   <i type="int" name="NBANDSV">    -1</i>
   <i type="int" name="NELM">    40</i>
   <i type="int" name="NELMHF">     1</i>
   <i type="int" name="DIM">     3</i>
   <i type="int" name="ANTIRES">     0</i>
   <i name="OMEGAMAX">    -30.00000000</i>
   <i name="OMEGAMIN">    -30.00000000</i>
   <i name="OMEGATL">   -200.00000000</i>
   <i type="int" name="OMEGAGRID">     0</i>
   <i name="CSHIFT">     -0.10000000</i>
   <i type="logical" name="SELFENERGY"> F  </i>
   <i type="logical" name="LSPECTRAL"> F  </i>
   <i type="logical" name="LSPECTRALGW"> F  </i>
   <i type="logical" name="LSINGLES"> F  </i>
   <i type="logical" name="LFERMIGW"> F  </i>
   <i type="logical" name="ODDONLYGW"> F  </i>
   <i type="logical" name="EVENONLYGW"> F  </i>
   <i type="int" name="NKREDLFX">     1</i>
   <i type="int" name="NKREDLFY">     1</i>
   <i type="int" name="NKREDLFZ">     1</i>
   <i type="int" name="MAXMEM">  1800</i>
   <i type="int" name="TELESCOPE">     0</i>
   <i type="int" name="TAUPAR">     1</i>
   <i type="int" name="OMEGAPAR">    -1</i>
   <i name="LAMBDA">      1.00000000</i>
  </separator>
  <separator name="External order field" >
   <i name="OFIELD_KAPPA">      0.00000000</i>
   <v name="OFIELD_K">      0.00000000      0.00000000      0.00000000</v>
   <i name="OFIELD_Q6_NEAR">      0.00000000</i>
   <i name="OFIELD_Q6_FAR">      0.00000000</i>
   <i name="OFIELD_A">      0.00000000</i>
  </separator>
 </parameters>
 <atominfo>
  <atoms>     154 </atoms>
  <types>       4 </types>
  <array name="atoms" >
   <dimension dim="1">ion</dimension>
   <field type="string">element</field>
   <field type="int">atomtype</field>
   <set>
    <rc><c>Sr</c><c>   1</c></rc>
    <rc><c>Sr</c><c>   1</c></rc>
    <rc><c>Sr</c><c>   1</c></rc>
    <rc><c>Sr</c><c>   1</c></rc>
    <rc><c>Sr</c><c>   1</c></rc>
    <rc><c>Sr</c><c>   1</c></rc>
    <rc><c>Sr</c><c>   1</c></rc>
    <rc><c>Sr</c><c>   1</c></rc>
    <rc><c>Sr</c><c>   1</c></rc>
    <rc><c>Sr</c><c>   1</c></rc>
    <rc><c>Sr</c><c>   1</c></rc>
    <rc><c>Sr</c><c>   1</c></rc>
    <rc><c>Sr</c><c>   1</c></rc>
    <rc><c>Sr</c><c>   1</c></rc>
    <rc><c>Sr</c><c>   1</c></rc>
    <rc><c>Sr</c><c>   1</c></rc>
    <rc><c>Sr</c><c>   1</c></rc>
    <rc><c>Sr</c><c>   1</c></rc>
    <rc><c>Sr</c><c>   1</c></rc>
    <rc><c>Sr</c><c>   1</c></rc>
    <rc><c>Sr</c><c>   1</c></rc>
    <rc><c>Sr</c><c>   1</c></rc>
    <rc><c>Sr</c><c>   1</c></rc>
    <rc><c>Sr</c><c>   1</c></rc>
    <rc><c>Sr</c><c>   1</c></rc>
    <rc><c>Sr</c><c>   1</c></rc>
    <rc><c>Sr</c><c>   1</c></rc>
    <rc><c>Sr</c><c>   1</c></rc>
    <rc><c>Sr</c><c>   1</c></rc>
    <rc><c>Sr</c><c>   1</c></rc>
    <rc><c>Sr</c><c>   1</c></rc>
    <rc><c>Sr</c><c>   1</c></rc>
    <rc><c>Ti</c><c>   2</c></rc>
    <rc><c>Ti</c><c>   2</c></rc>
    <rc><c>Ti</c><c>   2</c></rc>
    <rc><c>Ti</c><c>   2</c></rc>
    <rc><c>Ti</c><c>   2</c></rc>
    <rc><c>Ti</c><c>   2</c></rc>
    <rc><c>Ti</c><c>   2</c></rc>
    <rc><c>Ti</c><c>   2</c></rc>
    <rc><c>Ti</c><c>   2</c></rc>
    <rc><c>Ti</c><c>   2</c></rc>
    <rc><c>Ti</c><c>   2</c></rc>
    <rc><c>Ti</c><c>   2</c></rc>
    <rc><c>Ti</c><c>   2</c></rc>
    <rc><c>Ti</c><c>   2</c></rc>
    <rc><c>Ti</c><c>   2</c></rc>
    <rc><c>Ti</c><c>   2</c></rc>
    <rc><c>Ti</c><c>   2</c></rc>
    <rc><c>Ti</c><c>   2</c></rc>
    <rc><c>Ti</c><c>   2</c></rc>
    <rc><c>Ti</c><c>   2</c></rc>
    <rc><c>Fe</c><c>   3</c></rc>
    <rc><c>Fe</c><c>   3</c></rc>
    <rc><c>Fe</c><c>   3</c></rc>
    <rc><c>Fe</c><c>   3</c></rc>
    <rc><c>Fe</c><c>   3</c></rc>
    <rc><c>Fe</c><c>   3</c></rc>
    <rc><c>Fe</c><c>   3</c></rc>
    <rc><c>Fe</c><c>   3</c></rc>
    <rc><c>Fe</c><c>   3</c></rc>
    <rc><c>Fe</c><c>   3</c></rc>
    <rc><c>Fe</c><c>   3</c></rc>
    <rc><c>Fe</c><c>   3</c></rc>
    <rc><c>O </c><c>   4</c></rc>
    <rc><c>O </c><c>   4</c></rc>
    <rc><c>O </c><c>   4</c></rc>
    <rc><c>O </c><c>   4</c></rc>
    <rc><c>O </c><c>   4</c></rc>
    <rc><c>O </c><c>   4</c></rc>
    <rc><c>O </c><c>   4</c></rc>
    <rc><c>O </c><c>   4</c></rc>
    <rc><c>O </c><c>   4</c></rc>
    <rc><c>O </c><c>   4</c></rc>
    <rc><c>O </c><c>   4</c></rc>
    <rc><c>O </c><c>   4</c></rc>
    <rc><c>O </c><c>   4</c></rc>
    <rc><c>O </c><c>   4</c></rc>
    <rc><c>O </c><c>   4</c></rc>
    <rc><c>O </c><c>   4</c></rc>
    <rc><c>O </c><c>   4</c></rc>
    <rc><c>O </c><c>   4</c></rc>
    <rc><c>O </c><c>   4</c></rc>
    <rc><c>O </c><c>   4</c></rc>
    <rc><c>O </c><c>   4</c></rc>
    <rc><c>O </c><c>   4</c></rc>
    <rc><c>O </c><c>   4</c></rc>
    <rc><c>O </c><c>   4</c></rc>
    <rc><c>O </c><c>   4</c></rc>
    <rc><c>O </c><c>   4</c></rc>
    <rc><c>O </c><c>   4</c></rc>
    <rc><c>O </c><c>   4</c></rc>
    <rc><c>O </c><c>   4</c></rc>
    <rc><c>O </c><c>   4</c></rc>
    <rc><c>O </c><c>   4</c></rc>
    <rc><c>O </c><c>   4</c></rc>
    <rc><c>O </c><c>   4</c></rc>
    <rc><c>O </c><c>   4</c></rc>
    <rc><c>O </c><c>   4</c></rc>
    <rc><c>O </c><c>   4</c></rc>
    <rc><c>O </c><c>   4</c></rc>
    <rc><c>O </c><c>   4</c></rc>
    <rc><c>O </c><c>   4</c></rc>
    <rc><c>O </c><c>   4</c></rc>
    <rc><c>O </c><c>   4</c></rc>
    <rc><c>O </c><c>   4</c></rc>
    <rc><c>O </c><c>   4</c></rc>
    <rc><c>O </c><c>   4</c></rc>
    <rc><c>O </c><c>   4</c></rc>
    <rc><c>O </c><c>   4</c></rc>
    <rc><c>O </c><c>   4</c></rc>
    <rc><c>O </c><c>   4</c></rc>
    <rc><c>O </c><c>   4</c></rc>
    <rc><c>O </c><c>   4</c></rc>
    <rc><c>O </c><c>   4</c></rc>
    <rc><c>O </c><c>   4</c></rc>
    <rc><c>O </c><c>   4</c></rc>
    <rc><c>O </c><c>   4</c></rc>
    <rc><c>O </c><c>   4</c></rc>
    <rc><c>O </c><c>   4</c></rc>
    <rc><c>O </c><c>   4</c></rc>
    <rc><c>O </c><c>   4</c></rc>
    <rc><c>O </c><c>   4</c></rc>
    <rc><c>O </c><c>   4</c></rc>
    <rc><c>O </c><c>   4</c></rc>
    <rc><c>O </c><c>   4</c></rc>
    <rc><c>O </c><c>   4</c></rc>
    <rc><c>O </c><c>   4</c></rc>
    <rc><c>O </c><c>   4</c></rc>
    <rc><c>O </c><c>   4</c></rc>
    <rc><c>O </c><c>   4</c></rc>
    <rc><c>O </c><c>   4</c></rc>
    <rc><c>O </c><c>   4</c></rc>
    <rc><c>O </c><c>   4</c></rc>
    <rc><c>O </c><c>   4</c></rc>
    <rc><c>O </c><c>   4</c></rc>
    <rc><c>O </c><c>   4</c></rc>
    <rc><c>O </c><c>   4</c></rc>
    <rc><c>O </c><c>   4</c></rc>
    <rc><c>O </c><c>   4</c></rc>
    <rc><c>O </c><c>   4</c></rc>
    <rc><c>O </c><c>   4</c></rc>
    <rc><c>O </c><c>   4</c></rc>
    <rc><c>O </c><c>   4</c></rc>
    <rc><c>O </c><c>   4</c></rc>
    <rc><c>O </c><c>   4</c></rc>
    <rc><c>O </c><c>   4</c></rc>
    <rc><c>O </c><c>   4</c></rc>
    <rc><c>O </c><c>   4</c></rc>
    <rc><c>O </c><c>   4</c></rc>
    <rc><c>O </c><c>   4</c></rc>
    <rc><c>O </c><c>   4</c></rc>
    <rc><c>O </c><c>   4</c></rc>
    <rc><c>O </c><c>   4</c></rc>
   </set>
  </array>
  <array name="atomtypes" >
   <dimension dim="1">type</dimension>
   <field type="int">atomspertype</field>
   <field type="string">element</field>
   <field>mass</field>
   <field>valence</field>
   <field type="string">pseudopotential</field>
   <set>
    <rc><c>  32</c><c>Sr</c><c>     87.62000000</c><c>     10.00000000</c><c>  PAW_PBE Sr_sv 07Sep2000               </c></rc>
    <rc><c>  20</c><c>Ti</c><c>     47.88000000</c><c>      4.00000000</c><c>  PAW_PBE Ti 08Apr2002                  </c></rc>
    <rc><c>  12</c><c>Fe</c><c>     55.84700000</c><c>      8.00000000</c><c>  PAW_PBE Fe 06Sep2000                  </c></rc>
    <rc><c>  90</c><c>O </c><c>     16.00000000</c><c>      6.00000000</c><c>  PAW_PBE O 08Apr2002                   </c></rc>
   </set>
  </array>
 </atominfo>
 <structure name="initialpos" >
  <crystal>
   <varray name="basis" >
    <v>      11.22817122      -0.00733025       0.01058190 </v>
    <v>      -0.00730927      11.25458492      -0.00098189 </v>
    <v>       0.01509983      -0.00140736      15.92934593 </v>
   </varray>
   <i name="volume">   2012.96339621 </i>
   <varray name="rec_basis" >
    <v>       0.08906182       0.00005783      -0.00008442 </v>
    <v>       0.00005800       0.08885272       0.00000780 </v>
    <v>      -0.00005916       0.00000544       0.06277727 </v>
   </varray>
  </crystal>
  <varray name="positions" >
   <v>       0.00802274       0.24857801       0.12047950 </v>
   <v>       0.98692761       0.24525354       0.62758635 </v>
   <v>       0.00338982       0.75725185       0.11628368 </v>
   <v>       0.99918118       0.75946298       0.63343165 </v>
   <v>       0.49910643       0.24681648       0.12189917 </v>
   <v>       0.50523339       0.24893782       0.62850726 </v>
   <v>       0.49853904       0.75927229       0.11916328 </v>
   <v>       0.49901569       0.75747314       0.63127381 </v>
   <v>       0.00193228       0.23092493       0.37724003 </v>
   <v>       0.99738929       0.25255671       0.87324046 </v>
   <v>       0.00004015       0.75941943       0.37615015 </v>
   <v>       0.00498410       0.75053662       0.87533253 </v>
   <v>       0.49727730       0.22835938       0.37370873 </v>
   <v>       0.50298314       0.25217816       0.87429606 </v>
   <v>       0.49904308       0.75855387       0.37306616 </v>
   <v>       0.49560745       0.75157366       0.87618262 </v>
   <v>       0.25279864       0.99850050       0.12295102 </v>
   <v>       0.24614693       0.98561788       0.62748652 </v>
   <v>       0.25145473       0.50693059       0.11153849 </v>
   <v>       0.24740137       0.50931502       0.63642390 </v>
   <v>       0.74897058       0.98558548       0.12221514 </v>
   <v>       0.74991915       0.00303505       0.62600416 </v>
   <v>       0.75407602       0.50772867       0.11479851 </v>
   <v>       0.74914893       0.50216772       0.63815150 </v>
   <v>       0.24924125       0.98725257       0.37476668 </v>
   <v>       0.24963675       0.99284841       0.87408328 </v>
   <v>       0.24984173       0.50868899       0.36333006 </v>
   <v>       0.25097671       0.50947217       0.87499820 </v>
   <v>       0.75002893       0.98709163       0.37561656 </v>
   <v>       0.75032159       0.99994990       0.87600322 </v>
   <v>       0.75056956       0.50847574       0.38672079 </v>
   <v>       0.75008904       0.50231067       0.87522271 </v>
   <v>       0.00009891       0.00074497       0.99977007 </v>
   <v>       0.99987414       0.50331673       0.99730063 </v>
   <v>       0.75037871       0.25051913       0.49139524 </v>
   <v>       0.49991495       0.00071222       0.00204961 </v>
   <v>       0.50021560       0.99442951       0.49953315 </v>
   <v>       0.50243643       0.50269508       0.99857367 </v>
   <v>       0.75100220       0.25113183       0.00028795 </v>
   <v>       0.24933181       0.25182490       0.74661180 </v>
   <v>       0.24846435       0.25190570       0.25539638 </v>
   <v>       0.24770383       0.74087315       0.49735041 </v>
   <v>       0.25002197       0.75497417       0.24552528 </v>
   <v>       0.25055455       0.25067747       0.99450124 </v>
   <v>       0.75346476       0.75523583       0.50412334 </v>
   <v>       0.75030001       0.74146860       0.25291229 </v>
   <v>       0.74999328       0.75261799       0.75363726 </v>
   <v>       0.99875186       0.00351412       0.74851343 </v>
   <v>       0.50037734       0.00416230       0.74975521 </v>
   <v>       0.00054676       0.50046192       0.75224314 </v>
   <v>       0.49905696       0.50028334       0.75196897 </v>
   <v>       0.00177562       0.99523985       0.24987622 </v>
   <v>       0.74679658       0.22253581       0.24742027 </v>
   <v>       0.51497983       0.51032806       0.51217774 </v>
   <v>       0.25037048       0.22337800       0.50392292 </v>
   <v>       0.25097659       0.74958130       0.75225422 </v>
   <v>       0.48556113       0.50881304       0.23753742 </v>
   <v>       0.99695961       0.99452175       0.50088654 </v>
   <v>       0.74972791       0.74886778       0.99836701 </v>
   <v>       0.00880286       0.51293311       0.23743020 </v>
   <v>       0.74937051       0.25152362       0.75429487 </v>
   <v>       0.25033150       0.75263455       0.99773019 </v>
   <v>       0.99272770       0.51283446       0.51347017 </v>
   <v>       0.49873092       0.99478367       0.24952172 </v>
   <v>       0.11454549       0.13832163       0.25286375 </v>
   <v>       0.11596038       0.13923989       0.73767862 </v>
   <v>       0.11204444       0.63998973       0.25536848 </v>
   <v>       0.24303870       0.75842174       0.12468208 </v>
   <v>       0.11478622       0.85001264       0.50121795 </v>
   <v>       0.61522865       0.13742236       0.74135152 </v>
   <v>       0.61468444       0.60247743       0.27376589 </v>
   <v>       0.61652117       0.63458542       0.74050545 </v>
   <v>       0.39835973       0.37202034       0.27201185 </v>
   <v>       0.38416179       0.13910603       0.00909185 </v>
   <v>       0.38322535       0.86424366       0.25149506 </v>
   <v>       0.38535113       0.87122679       0.74964117 </v>
   <v>       0.60444687       0.13771178       0.24649207 </v>
   <v>       0.88410936       0.36756652       0.75507016 </v>
   <v>       0.88860838       0.85071720       0.24959197 </v>
   <v>       0.88476291       0.86857052       0.75946601 </v>
   <v>       0.49914143       0.01885152       0.87467698 </v>
   <v>       0.36356801       0.11895104       0.73370033 </v>
   <v>       0.36945476       0.61547791       0.74895961 </v>
   <v>       0.86495618       0.10568080       0.24994256 </v>
   <v>       0.86545518       0.11918041       0.73996022 </v>
   <v>       0.86104797       0.58511684       0.26187713 </v>
   <v>       0.86691326       0.61761617       0.74452085 </v>
   <v>       0.09967115       0.38243989       0.27465086 </v>
   <v>       0.13724404       0.38577069       0.76028768 </v>
   <v>       0.13828795       0.88924442       0.25171945 </v>
   <v>       0.13279572       0.88685533       0.74954200 </v>
   <v>       0.36028037       0.61669293       0.24330228 </v>
   <v>       0.63470616       0.38707392       0.75508848 </v>
   <v>       0.63436842       0.87126887       0.25336160 </v>
   <v>       0.63395715       0.88635625       0.75511697 </v>
   <v>       0.36364950       0.38552180       0.99383154 </v>
   <v>       0.36782952       0.88791896       0.99617416 </v>
   <v>       0.36783967       0.87538444       0.49900598 </v>
   <v>       0.90154257       0.38402555       0.47492900 </v>
   <v>       0.86600671       0.88698702       0.99937984 </v>
   <v>       0.86118241       0.88821611       0.49660919 </v>
   <v>       0.13589778       0.11999721       0.01240202 </v>
   <v>       0.12755668       0.11325373       0.50170946 </v>
   <v>       0.13281249       0.61519334       0.00297111 </v>
   <v>       0.14041520       0.58676055       0.48824261 </v>
   <v>       0.63673587       0.11854822       0.01497614 </v>
   <v>       0.63621840       0.12091334       0.49074437 </v>
   <v>       0.63382917       0.61404716       0.00132139 </v>
   <v>       0.64272982       0.61650887       0.50923520 </v>
   <v>       0.11640103       0.36481529       0.99276249 </v>
   <v>       0.24673487       0.28697233       0.61427236 </v>
   <v>       0.11420052       0.87110648       0.99387208 </v>
   <v>       0.86459021       0.38603215       0.99252663 </v>
   <v>       0.61556812       0.36349795       0.99462506 </v>
   <v>       0.25100701       0.22972520       0.87342348 </v>
   <v>       0.61591855       0.86945849       0.99813646 </v>
   <v>       0.61581815       0.86415048       0.49697334 </v>
   <v>       0.11443259       0.63358212       0.74467120 </v>
   <v>       0.39030612       0.13339588       0.50489686 </v>
   <v>       0.38657799       0.63227110       0.00905728 </v>
   <v>       0.38717188       0.60452789       0.47533856 </v>
   <v>       0.88462417       0.13803209       0.01184166 </v>
   <v>       0.87719490       0.13760495       0.49450303 </v>
   <v>       0.88622399       0.63475093       0.00494856 </v>
   <v>       0.88981879       0.64065750       0.49912232 </v>
   <v>       0.00216276       0.99241528       0.12685465 </v>
   <v>       0.99441011       0.99122709       0.62487980 </v>
   <v>       0.99963513       0.48380845       0.12269899 </v>
   <v>       0.00553072       0.48048233       0.62707670 </v>
   <v>       0.74791982       0.27793984       0.60907793 </v>
   <v>       0.50947623       0.99308568       0.62244814 </v>
   <v>       0.51146062       0.48089390       0.12451575 </v>
   <v>       0.48811645       0.48158980       0.62560093 </v>
   <v>       0.00128369       0.99396425       0.37358470 </v>
   <v>       0.00141345       0.02017205       0.87537843 </v>
   <v>       0.59610642       0.37290142       0.47426855 </v>
   <v>       0.99855603       0.51202477       0.87459743 </v>
   <v>       0.49781419       0.99680215       0.37611257 </v>
   <v>       0.50103856       0.51029113       0.87518263 </v>
   <v>       0.24646317       0.28057441       0.39229589 </v>
   <v>       0.35571527       0.12227477       0.25891435 </v>
   <v>       0.24968893       0.75040654       0.37345351 </v>
   <v>       0.25205581       0.74432869       0.87487440 </v>
   <v>       0.75472998       0.28041541       0.35878751 </v>
   <v>       0.75004693       0.23341008       0.87873875 </v>
   <v>       0.75293498       0.74710897       0.37738774 </v>
   <v>       0.74792817       0.74043732       0.87402052 </v>
   <v>       0.24978951       0.27687847       0.13657759 </v>
   <v>       0.49416776       0.99308100       0.12610032 </v>
   <v>       0.25838089       0.73745111       0.61838612 </v>
   <v>       0.75721505       0.28657680       0.13866334 </v>
   <v>       0.38417839       0.36372679       0.75732573 </v>
   <v>       0.74375180       0.73803268       0.13151728 </v>
   <v>       0.75661743       0.76398717       0.62668471 </v>
  </varray>
 </structure>
 <calculation>
  <scstep>
   <time name="dav">  303.15  303.19</time>
   <time name="total">  306.90  307.01</time>
   <energy>
    <i name="alphaZ">   5600.70274153 </i>
    <i name="ewald"> -61493.13676365 </i>
    <i name="hartreedc"> -17017.97145826 </i>
    <i name="XCdc">   3073.97034726 </i>
    <i name="pawpsdc"> 113535.82504590 </i>
    <i name="pawaedc">-112588.52019246 </i>
    <i name="eentropy">     -0.00000000 </i>
    <i name="bandstr">  -7116.83676593 </i>
    <i name="atom">  74916.81196153 </i>
    <i name="e_fr_energy">  -1089.15508407 </i>
    <i name="e_wo_entrp">  -1089.15508407 </i>
    <i name="e_0_energy">  -1089.15508407 </i>
   </energy>
  </scstep>
  <scstep>
   <time name="diag">   33.94   33.95</time>
   <time name="diis">   31.15   31.18</time>
   <time name="orth">   19.19   19.21</time>
   <time name="total">   88.08   88.21</time>
   <energy>
    <i name="e_fr_energy">  -1089.15508211 </i>
    <i name="e_wo_entrp">  -1089.15508211 </i>
    <i name="e_0_energy">  -1089.15508211 </i>
   </energy>
  </scstep>
  <scstep>
   <time name="diag">   33.75   33.77</time>
   <time name="diis">   29.81   29.83</time>
   <time name="orth">   19.24   19.24</time>
   <time name="total">   86.61   86.66</time>
   <energy>
    <i name="e_fr_energy">  -1089.15508210 </i>
    <i name="e_wo_entrp">  -1089.15508210 </i>
    <i name="e_0_energy">  -1089.15508210 </i>
   </energy>
  </scstep>
  <scstep>
   <time name="diag">   33.71   33.71</time>
   <time name="diis">   24.99   24.99</time>
   <time name="orth">   19.15   19.15</time>
   <time name="total">   81.64   81.73</time>
   <energy>
    <i name="e_fr_energy">  -1089.15508198 </i>
    <i name="e_wo_entrp">  -1089.15508198 </i>
    <i name="e_0_energy">  -1089.15508198 </i>
   </energy>
  </scstep>
  <scstep>
   <time name="diag">   33.73   33.73</time>
   <time name="diis">   24.42   24.43</time>
   <time name="orth">   19.11   19.11</time>
   <time name="total">   81.06   81.23</time>
   <energy>
    <i name="e_fr_energy">  -1089.15508202 </i>
    <i name="e_wo_entrp">  -1089.15508202 </i>
    <i name="e_0_energy">  -1089.15508202 </i>
   </energy>
  </scstep>
  <scstep>
   <time name="diag">   33.79   33.80</time>
   <time name="diis">   23.48   23.49</time>
   <time name="orth">   19.17   19.16</time>
   <time name="total">   80.24   80.38</time>
   <energy>
    <i name="e_fr_energy">  -1089.15508205 </i>
    <i name="e_wo_entrp">  -1089.15508205 </i>
    <i name="e_0_energy">  -1089.15508205 </i>
   </energy>
  </scstep>
  <scstep>
   <time name="diag">   33.63   33.64</time>
   <time name="diis">   22.95   22.96</time>
   <time name="orth">   19.10   19.10</time>
   <time name="total">   79.42   79.47</time>
   <energy>
    <i name="e_fr_energy">  -1089.15508205 </i>
    <i name="e_wo_entrp">  -1089.15508205 </i>
    <i name="e_0_energy">  -1089.15508205 </i>
   </energy>
  </scstep>
  <scstep>
   <time name="diag">   33.64   33.65</time>
   <time name="diis">   22.43   22.44</time>
   <time name="orth">   19.12   19.12</time>
   <time name="total">   75.78   75.91</time>
   <energy>
    <i name="alphaZ">   5600.70274153 </i>
    <i name="ewald"> -61493.13676365 </i>
    <i name="hartreedc"> -17017.99248501 </i>
    <i name="XCdc">   3073.96916863 </i>
    <i name="pawpsdc"> 113534.68748156 </i>
    <i name="pawaedc">-112587.39198248 </i>
    <i name="eentropy">     -0.00000000 </i>
    <i name="bandstr">  -7116.80520417 </i>
    <i name="atom">  74916.81196153 </i>
    <i name="e_fr_energy">  -1089.15508206 </i>
    <i name="e_wo_entrp">  -1089.15508206 </i>
    <i name="e_0_energy">  -1089.15508206 </i>
   </energy>
  </scstep>
  <structure>
   <crystal>
    <varray name="basis" >
     <v>      11.22817122      -0.00733025       0.01058190 </v>
     <v>      -0.00730927      11.25458492      -0.00098189 </v>
     <v>       0.01509983      -0.00140736      15.92934593 </v>
    </varray>
    <i name="volume">   2012.96339621 </i>
    <varray name="rec_basis" >
     <v>       0.08906182       0.00005783      -0.00008442 </v>
     <v>       0.00005800       0.08885272       0.00000780 </v>
     <v>      -0.00005916       0.00000544       0.06277727 </v>
    </varray>
   </crystal>
   <varray name="positions" >
    <v>       0.00802274       0.24857801       0.12047950 </v>
    <v>       0.98692761       0.24525354       0.62758635 </v>
    <v>       0.00338982       0.75725185       0.11628368 </v>
    <v>       0.99918118       0.75946298       0.63343165 </v>
    <v>       0.49910643       0.24681648       0.12189917 </v>
    <v>       0.50523339       0.24893782       0.62850726 </v>
    <v>       0.49853904       0.75927229       0.11916328 </v>
    <v>       0.49901569       0.75747314       0.63127381 </v>
    <v>       0.00193228       0.23092493       0.37724003 </v>
    <v>       0.99738929       0.25255671       0.87324046 </v>
    <v>       0.00004015       0.75941943       0.37615015 </v>
    <v>       0.00498410       0.75053662       0.87533253 </v>
    <v>       0.49727730       0.22835938       0.37370873 </v>
    <v>       0.50298314       0.25217816       0.87429606 </v>
    <v>       0.49904308       0.75855387       0.37306616 </v>
    <v>       0.49560745       0.75157366       0.87618262 </v>
    <v>       0.25279864       0.99850050       0.12295102 </v>
    <v>       0.24614693       0.98561788       0.62748652 </v>
    <v>       0.25145473       0.50693059       0.11153849 </v>
    <v>       0.24740137       0.50931502       0.63642390 </v>
    <v>       0.74897058       0.98558548       0.12221514 </v>
    <v>       0.74991915       0.00303505       0.62600416 </v>
    <v>       0.75407602       0.50772867       0.11479851 </v>
    <v>       0.74914893       0.50216772       0.63815150 </v>
    <v>       0.24924125       0.98725257       0.37476668 </v>
    <v>       0.24963675       0.99284841       0.87408328 </v>
    <v>       0.24984173       0.50868899       0.36333006 </v>
    <v>       0.25097671       0.50947217       0.87499820 </v>
    <v>       0.75002893       0.98709163       0.37561656 </v>
    <v>       0.75032159       0.99994990       0.87600322 </v>
    <v>       0.75056956       0.50847574       0.38672079 </v>
    <v>       0.75008904       0.50231067       0.87522271 </v>
    <v>       0.00009891       0.00074497       0.99977007 </v>
    <v>       0.99987414       0.50331673       0.99730063 </v>
    <v>       0.75037871       0.25051913       0.49139524 </v>
    <v>       0.49991495       0.00071222       0.00204961 </v>
    <v>       0.50021560       0.99442951       0.49953315 </v>
    <v>       0.50243643       0.50269508       0.99857367 </v>
    <v>       0.75100220       0.25113183       0.00028795 </v>
    <v>       0.24933181       0.25182490       0.74661180 </v>
    <v>       0.24846435       0.25190570       0.25539638 </v>
    <v>       0.24770383       0.74087315       0.49735041 </v>
    <v>       0.25002197       0.75497417       0.24552528 </v>
    <v>       0.25055455       0.25067747       0.99450124 </v>
    <v>       0.75346476       0.75523583       0.50412334 </v>
    <v>       0.75030001       0.74146860       0.25291229 </v>
    <v>       0.74999328       0.75261799       0.75363726 </v>
    <v>       0.99875186       0.00351412       0.74851343 </v>
    <v>       0.50037734       0.00416230       0.74975521 </v>
    <v>       0.00054676       0.50046192       0.75224314 </v>
    <v>       0.49905696       0.50028334       0.75196897 </v>
    <v>       0.00177562       0.99523985       0.24987622 </v>
    <v>       0.74679658       0.22253581       0.24742027 </v>
    <v>       0.51497983       0.51032806       0.51217774 </v>
    <v>       0.25037048       0.22337800       0.50392292 </v>
    <v>       0.25097659       0.74958130       0.75225422 </v>
    <v>       0.48556113       0.50881304       0.23753742 </v>
    <v>       0.99695961       0.99452175       0.50088654 </v>
    <v>       0.74972791       0.74886778       0.99836701 </v>
    <v>       0.00880286       0.51293311       0.23743020 </v>
    <v>       0.74937051       0.25152362       0.75429487 </v>
    <v>       0.25033150       0.75263455       0.99773019 </v>
    <v>       0.99272770       0.51283446       0.51347017 </v>
    <v>       0.49873092       0.99478367       0.24952172 </v>
    <v>       0.11454549       0.13832163       0.25286375 </v>
    <v>       0.11596038       0.13923989       0.73767862 </v>
    <v>       0.11204444       0.63998973       0.25536848 </v>
    <v>       0.24303870       0.75842174       0.12468208 </v>
    <v>       0.11478622       0.85001264       0.50121795 </v>
    <v>       0.61522865       0.13742236       0.74135152 </v>
    <v>       0.61468444       0.60247743       0.27376589 </v>
    <v>       0.61652117       0.63458542       0.74050545 </v>
    <v>       0.39835973       0.37202034       0.27201185 </v>
    <v>       0.38416179       0.13910603       0.00909185 </v>
    <v>       0.38322535       0.86424366       0.25149506 </v>
    <v>       0.38535113       0.87122679       0.74964117 </v>
    <v>       0.60444687       0.13771178       0.24649207 </v>
    <v>       0.88410936       0.36756652       0.75507016 </v>
    <v>       0.88860838       0.85071720       0.24959197 </v>
    <v>       0.88476291       0.86857052       0.75946601 </v>
    <v>       0.49914143       0.01885152       0.87467698 </v>
    <v>       0.36356801       0.11895104       0.73370033 </v>
    <v>       0.36945476       0.61547791       0.74895961 </v>
    <v>       0.86495618       0.10568080       0.24994256 </v>
    <v>       0.86545518       0.11918041       0.73996022 </v>
    <v>       0.86104797       0.58511684       0.26187713 </v>
    <v>       0.86691326       0.61761617       0.74452085 </v>
    <v>       0.09967115       0.38243989       0.27465086 </v>
    <v>       0.13724404       0.38577069       0.76028768 </v>
    <v>       0.13828795       0.88924442       0.25171945 </v>
    <v>       0.13279572       0.88685533       0.74954200 </v>
    <v>       0.36028037       0.61669293       0.24330228 </v>
    <v>       0.63470616       0.38707392       0.75508848 </v>
    <v>       0.63436842       0.87126887       0.25336160 </v>
    <v>       0.63395715       0.88635625       0.75511697 </v>
    <v>       0.36364950       0.38552180       0.99383154 </v>
    <v>       0.36782952       0.88791896       0.99617416 </v>
    <v>       0.36783967       0.87538444       0.49900598 </v>
    <v>       0.90154257       0.38402555       0.47492900 </v>
    <v>       0.86600671       0.88698702       0.99937984 </v>
    <v>       0.86118241       0.88821611       0.49660919 </v>
    <v>       0.13589778       0.11999721       0.01240202 </v>
    <v>       0.12755668       0.11325373       0.50170946 </v>
    <v>       0.13281249       0.61519334       0.00297111 </v>
    <v>       0.14041520       0.58676055       0.48824261 </v>
    <v>       0.63673587       0.11854822       0.01497614 </v>
    <v>       0.63621840       0.12091334       0.49074437 </v>
    <v>       0.63382917       0.61404716       0.00132139 </v>
    <v>       0.64272982       0.61650887       0.50923520 </v>
    <v>       0.11640103       0.36481529       0.99276249 </v>
    <v>       0.24673487       0.28697233       0.61427236 </v>
    <v>       0.11420052       0.87110648       0.99387208 </v>
    <v>       0.86459021       0.38603215       0.99252663 </v>
    <v>       0.61556812       0.36349795       0.99462506 </v>
    <v>       0.25100701       0.22972520       0.87342348 </v>
    <v>       0.61591855       0.86945849       0.99813646 </v>
    <v>       0.61581815       0.86415048       0.49697334 </v>
    <v>       0.11443259       0.63358212       0.74467120 </v>
    <v>       0.39030612       0.13339588       0.50489686 </v>
    <v>       0.38657799       0.63227110       0.00905728 </v>
    <v>       0.38717188       0.60452789       0.47533856 </v>
    <v>       0.88462417       0.13803209       0.01184166 </v>
    <v>       0.87719490       0.13760495       0.49450303 </v>
    <v>       0.88622399       0.63475093       0.00494856 </v>
    <v>       0.88981879       0.64065750       0.49912232 </v>
    <v>       0.00216276       0.99241528       0.12685465 </v>
    <v>       0.99441011       0.99122709       0.62487980 </v>
    <v>       0.99963513       0.48380845       0.12269899 </v>
    <v>       0.00553072       0.48048233       0.62707670 </v>
    <v>       0.74791982       0.27793984       0.60907793 </v>
    <v>       0.50947623       0.99308568       0.62244814 </v>
    <v>       0.51146062       0.48089390       0.12451575 </v>
    <v>       0.48811645       0.48158980       0.62560093 </v>
    <v>       0.00128369       0.99396425       0.37358470 </v>
    <v>       0.00141345       0.02017205       0.87537843 </v>
    <v>       0.59610642       0.37290142       0.47426855 </v>
    <v>       0.99855603       0.51202477       0.87459743 </v>
    <v>       0.49781419       0.99680215       0.37611257 </v>
    <v>       0.50103856       0.51029113       0.87518263 </v>
    <v>       0.24646317       0.28057441       0.39229589 </v>
    <v>       0.35571527       0.12227477       0.25891435 </v>
    <v>       0.24968893       0.75040654       0.37345351 </v>
    <v>       0.25205581       0.74432869       0.87487440 </v>
    <v>       0.75472998       0.28041541       0.35878751 </v>
    <v>       0.75004693       0.23341008       0.87873875 </v>
    <v>       0.75293498       0.74710897       0.37738774 </v>
    <v>       0.74792817       0.74043732       0.87402052 </v>
    <v>       0.24978951       0.27687847       0.13657759 </v>
    <v>       0.49416776       0.99308100       0.12610032 </v>
    <v>       0.25838089       0.73745111       0.61838612 </v>
    <v>       0.75721505       0.28657680       0.13866334 </v>
    <v>       0.38417839       0.36372679       0.75732573 </v>
    <v>       0.74375180       0.73803268       0.13151728 </v>
    <v>       0.75661743       0.76398717       0.62668471 </v>
   </varray>
  </structure>
  <varray name="forces" >
   <v>      -0.00628386       0.00420027      -0.00942370 </v>
   <v>      -0.00024165       0.01131041       0.00292730 </v>
   <v>      -0.00052884      -0.00378818      -0.00208606 </v>
   <v>      -0.00357589      -0.00656235      -0.00074715 </v>
   <v>       0.00229382       0.00993909       0.00142502 </v>
   <v>      -0.00055173      -0.00151041       0.00366554 </v>
   <v>       0.00635875      -0.00960854      -0.00157050 </v>
   <v>       0.01048735      -0.00163312       0.00340337 </v>
   <v>      -0.00362928       0.00701318      -0.01076057 </v>
   <v>       0.00374867       0.00867303       0.00575771 </v>
   <v>       0.00548699      -0.00310038       0.00438756 </v>
   <v>      -0.00483773      -0.00342178      -0.00420423 </v>
   <v>      -0.00417637      -0.00827737       0.00168551 </v>
   <v>      -0.00346200       0.01429340       0.01166108 </v>
   <v>       0.00372978      -0.00900329       0.00108513 </v>
   <v>       0.00899630      -0.00044945      -0.00597505 </v>
   <v>       0.00564698      -0.01011614       0.00032617 </v>
   <v>       0.00339584       0.01424948       0.00359286 </v>
   <v>       0.00934543       0.00292167       0.00244388 </v>
   <v>      -0.00280273      -0.00712127      -0.01155331 </v>
   <v>       0.00396244       0.01237654      -0.00000994 </v>
   <v>       0.00637686      -0.00678811      -0.00123405 </v>
   <v>      -0.00696938      -0.00352734       0.00078084 </v>
   <v>      -0.00102571      -0.00863482      -0.00933738 </v>
   <v>       0.00458347       0.00763989       0.00229315 </v>
   <v>       0.00528802       0.00156505      -0.01040039 </v>
   <v>       0.00820645      -0.00360651      -0.00215072 </v>
   <v>       0.00073650      -0.00953650      -0.00540991 </v>
   <v>      -0.00808670       0.01005194       0.00125876 </v>
   <v>      -0.00668637      -0.00019553       0.00252934 </v>
   <v>      -0.00958836       0.00349574      -0.00702949 </v>
   <v>      -0.00695484      -0.00751665       0.00648430 </v>
   <v>       0.00880158       0.01106458       0.01749316 </v>
   <v>       0.00046155       0.00833463      -0.00481586 </v>
   <v>      -0.00112076      -0.00111722      -0.00111999 </v>
   <v>      -0.00043482       0.00555873      -0.01155592 </v>
   <v>       0.00956423       0.00919374       0.00308823 </v>
   <v>       0.01100967      -0.02042137      -0.00469673 </v>
   <v>      -0.00368018       0.00998973       0.01892271 </v>
   <v>       0.00772396       0.01034402      -0.01994726 </v>
   <v>       0.02451003       0.00122134       0.01697167 </v>
   <v>      -0.00642914      -0.01015230      -0.00654317 </v>
   <v>       0.00169070       0.01160792      -0.01340606 </v>
   <v>      -0.00521379       0.00793411       0.02093845 </v>
   <v>      -0.02320433       0.01455778       0.00744555 </v>
   <v>      -0.00939594      -0.01534613      -0.02897403 </v>
   <v>       0.00856867      -0.00092361      -0.00302876 </v>
   <v>       0.00838898      -0.01081411      -0.01487159 </v>
   <v>      -0.00474401      -0.01299777       0.00102688 </v>
   <v>      -0.00221484      -0.00720741       0.00747501 </v>
   <v>       0.00727831      -0.00844093       0.00533757 </v>
   <v>      -0.00176736       0.00322473       0.01866457 </v>
   <v>       0.01022900       0.00150678       0.00013869 </v>
   <v>      -0.00590656      -0.00089016      -0.00103238 </v>
   <v>       0.00780684       0.00454180       0.01810482 </v>
   <v>      -0.01067777       0.00963601      -0.00519974 </v>
   <v>       0.01277681       0.00556918       0.00979731 </v>
   <v>      -0.01017012       0.00224945      -0.00197800 </v>
   <v>      -0.00175297      -0.01442231       0.00178553 </v>
   <v>       0.00589217      -0.00906727      -0.00306256 </v>
   <v>      -0.00609969       0.00473107       0.00042003 </v>
   <v>      -0.00430217      -0.00263088       0.00568688 </v>
   <v>       0.00841592       0.00429776       0.01060880 </v>
   <v>      -0.00839114       0.00387237       0.00703096 </v>
   <v>       0.00272578       0.01717405      -0.01007263 </v>
   <v>       0.00938590      -0.01774808      -0.00451643 </v>
   <v>      -0.00811641       0.00399900       0.00136767 </v>
   <v>       0.00959119       0.00041499      -0.00985712 </v>
   <v>       0.00247347       0.00548629       0.00051365 </v>
   <v>       0.00717563      -0.00525369       0.00634204 </v>
   <v>      -0.00785460       0.01146900      -0.01631682 </v>
   <v>      -0.00012358      -0.01190880       0.00611983 </v>
   <v>      -0.00731137      -0.00185550      -0.00240878 </v>
   <v>      -0.01108586      -0.00362084       0.00603554 </v>
   <v>       0.00825341       0.00889957      -0.00145517 </v>
   <v>      -0.01143763      -0.00197258      -0.00782403 </v>
   <v>      -0.01256488       0.00346665       0.00783606 </v>
   <v>      -0.01185927       0.00063867      -0.00529074 </v>
   <v>       0.00644708       0.00049002       0.00514712 </v>
   <v>      -0.01003414       0.00149707       0.00544794 </v>
   <v>      -0.00054067      -0.00338291       0.00171773 </v>
   <v>       0.01575989       0.01508687       0.00556856 </v>
   <v>      -0.00025878      -0.00545173       0.01031272 </v>
   <v>      -0.00614180       0.00270196      -0.00451317 </v>
   <v>      -0.00450789      -0.00451550       0.01285623 </v>
   <v>      -0.00003453       0.01152290      -0.00930645 </v>
   <v>       0.00980050       0.01212747      -0.00539513 </v>
   <v>       0.00994922       0.01563634      -0.01167631 </v>
   <v>      -0.00794900      -0.00275771      -0.00977398 </v>
   <v>      -0.00561098       0.01464849       0.00119674 </v>
   <v>      -0.00616848      -0.00344707      -0.00321701 </v>
   <v>      -0.01913612       0.00828869      -0.00085752 </v>
   <v>      -0.00853450      -0.01007269       0.00124879 </v>
   <v>      -0.00432423       0.00725046      -0.00090434 </v>
   <v>      -0.00486250      -0.00927098       0.01314140 </v>
   <v>      -0.00099059      -0.01398118       0.00015038 </v>
   <v>       0.00615603      -0.01118592      -0.00546489 </v>
   <v>      -0.00726253      -0.00461272       0.00874684 </v>
   <v>      -0.00550055       0.00033381       0.00176010 </v>
   <v>       0.00738852      -0.00476249       0.00246965 </v>
   <v>       0.01888452       0.01847537      -0.00000085 </v>
   <v>      -0.00329216       0.00808178      -0.00767893 </v>
   <v>       0.00348369       0.00733935       0.00773044 </v>
   <v>      -0.00710062       0.00294809      -0.00386313 </v>
   <v>      -0.01272428       0.00812347       0.00217777 </v>
   <v>      -0.00689518      -0.00032221      -0.00827518 </v>
   <v>       0.00536968      -0.00772532       0.00457300 </v>
   <v>       0.00638923       0.00133250       0.00332360 </v>
   <v>       0.01051302       0.00067884      -0.00064639 </v>
   <v>       0.01740150      -0.00281979      -0.00124099 </v>
   <v>       0.00674998      -0.01497977       0.00356094 </v>
   <v>      -0.00414759       0.00107879      -0.00677736 </v>
   <v>       0.00178341      -0.00668616       0.00918159 </v>
   <v>       0.01193051      -0.00556935       0.00161784 </v>
   <v>      -0.00649246      -0.00256699      -0.00481273 </v>
   <v>       0.00145381       0.00945104       0.00614877 </v>
   <v>       0.00728024       0.00542997      -0.01534064 </v>
   <v>       0.00589768      -0.00921210      -0.00097307 </v>
   <v>       0.01125582       0.00941878      -0.00016234 </v>
   <v>      -0.00325107       0.00628522      -0.00401616 </v>
   <v>      -0.00101781       0.01050147       0.01649138 </v>
   <v>      -0.00540350      -0.01059459       0.00019619 </v>
   <v>       0.00781098       0.00425318      -0.00081054 </v>
   <v>      -0.00042384      -0.01344876       0.00379538 </v>
   <v>       0.01222854      -0.00570958       0.00957212 </v>
   <v>       0.00357300      -0.00114804      -0.00716153 </v>
   <v>      -0.00197657       0.00909442      -0.00395224 </v>
   <v>      -0.00361088      -0.00153445       0.01356575 </v>
   <v>       0.00978153      -0.00187043      -0.00859599 </v>
   <v>       0.00045304      -0.00958527       0.00207980 </v>
   <v>       0.01007704      -0.00781019      -0.00302757 </v>
   <v>      -0.00704968      -0.01440789      -0.00405185 </v>
   <v>       0.00185330       0.00208176       0.00150453 </v>
   <v>      -0.00435988       0.00292031      -0.00087485 </v>
   <v>      -0.00089077       0.00507062       0.00729546 </v>
   <v>      -0.00201170      -0.00382955       0.00876846 </v>
   <v>      -0.00818554      -0.00180022       0.00665428 </v>
   <v>      -0.00664650      -0.00109498      -0.00134688 </v>
   <v>       0.00642002      -0.00031173      -0.01981308 </v>
   <v>      -0.01518962      -0.00349161      -0.00419597 </v>
   <v>      -0.01380371      -0.00272332      -0.01050824 </v>
   <v>       0.00231501      -0.00277588       0.00980749 </v>
   <v>       0.00411311      -0.00449129      -0.00748095 </v>
   <v>       0.00282314       0.00027874      -0.00049149 </v>
   <v>      -0.00888904      -0.00342161      -0.00930629 </v>
   <v>       0.00402857      -0.00943002      -0.00481310 </v>
   <v>      -0.00332116      -0.01385240       0.00484363 </v>
   <v>      -0.00778740       0.00115277      -0.00949385 </v>
   <v>       0.00559620      -0.00855077       0.00359622 </v>
   <v>       0.00010327       0.00134020      -0.00002768 </v>
   <v>      -0.01163641      -0.00262495      -0.00746195 </v>
   <v>      -0.00575860       0.00263758       0.00177897 </v>
   <v>       0.00132000       0.00773437       0.00477156 </v>
   <v>      -0.00877459       0.00501250       0.01051840 </v>
  </varray>
  <varray name="stress" >
   <v>      -0.17227530       0.09081106       0.02708635 </v>
   <v>       0.09081101      -0.20676012      -0.01294945 </v>
   <v>       0.02708626      -0.01294875      -0.16951660 </v>
  </varray>
  <energy>
   <i name="e_fr_energy">  -1089.15508206 </i>
   <i name="e_wo_entrp">  -1089.15508206 </i>
   <i name="e_0_energy">     -0.00000000 </i>
  </energy>
  <time name="totalsc"> 1033.15 1036.21</time>
 </calculation>
 <calculation>
  <scstep>
   <time name="dav">  297.26  297.28</time>
   <time name="total">  301.00  301.09</time>
   <energy>
    <i name="alphaZ">   5601.91211826 </i>
    <i name="ewald"> -61497.89194148 </i>
    <i name="hartreedc"> -17018.95651392 </i>
    <i name="XCdc">   3074.25430157 </i>
    <i name="pawpsdc"> 113534.66918708 </i>
    <i name="pawaedc">-112587.37359414 </i>
    <i name="eentropy">     -0.00000000 </i>
    <i name="bandstr">  -7112.58093140 </i>
    <i name="atom">  74916.81196153 </i>
    <i name="e_fr_energy">  -1089.15541250 </i>
    <i name="e_wo_entrp">  -1089.15541250 </i>
    <i name="e_0_energy">  -1089.15541250 </i>
   </energy>
  </scstep>
  <scstep>
   <time name="diag">   33.65   33.65</time>
   <time name="diis">   52.09   52.10</time>
   <time name="orth">   19.11   19.11</time>
   <time name="total">  108.61  108.64</time>
   <energy>
    <i name="e_fr_energy">  -1089.15594832 </i>
    <i name="e_wo_entrp">  -1089.15594832 </i>
    <i name="e_0_energy">  -1089.15594832 </i>
   </energy>
  </scstep>
  <scstep>
   <time name="diag">   33.73   33.73</time>
   <time name="diis">   44.13   44.14</time>
   <time name="orth">   19.14   19.14</time>
   <time name="total">  100.76  100.89</time>
   <energy>
    <i name="e_fr_energy">  -1089.15592121 </i>
    <i name="e_wo_entrp">  -1089.15592121 </i>
    <i name="e_0_energy">  -1089.15592121 </i>
   </energy>
  </scstep>
  <scstep>
   <time name="diag">   33.76   33.76</time>
   <time name="diis">   32.91   32.92</time>
   <time name="orth">   19.16   19.16</time>
   <time name="total">   89.59   89.69</time>
   <energy>
    <i name="e_fr_energy">  -1089.15587855 </i>
    <i name="e_wo_entrp">  -1089.15587855 </i>
    <i name="e_0_energy">  -1089.15587855 </i>
   </energy>
  </scstep>
  <scstep>
   <time name="diag">   33.68   33.68</time>
   <time name="diis">   31.95   31.96</time>
   <time name="orth">   19.19   19.19</time>
   <time name="total">   88.58   88.71</time>
   <energy>
    <i name="e_fr_energy">  -1089.15587321 </i>
    <i name="e_wo_entrp">  -1089.15587321 </i>
    <i name="e_0_energy">  -1089.15587321 </i>
   </energy>
  </scstep>
  <scstep>
   <time name="diag">   33.85   33.87</time>
   <time name="diis">   31.51   31.51</time>
   <time name="orth">   19.16   19.17</time>
   <time name="total">   88.28   88.33</time>
   <energy>
    <i name="e_fr_energy">  -1089.15587661 </i>
    <i name="e_wo_entrp">  -1089.15587661 </i>
    <i name="e_0_energy">  -1089.15587661 </i>
   </energy>
  </scstep>
  <scstep>
   <time name="diag">   33.74   33.75</time>
   <time name="diis">   30.56   30.56</time>
   <time name="orth">   19.15   19.15</time>
   <time name="total">   87.22   87.28</time>
   <energy>
    <i name="e_fr_energy">  -1089.15588016 </i>
    <i name="e_wo_entrp">  -1089.15588016 </i>
    <i name="e_0_energy">  -1089.15588016 </i>
   </energy>
  </scstep>
  <scstep>
   <time name="diag">   33.76   33.79</time>
   <time name="diis">   29.68   29.69</time>
   <time name="orth">   19.11   19.11</time>
   <time name="total">   83.14   83.27</time>
   <energy>
    <i name="alphaZ">   5601.91211826 </i>
    <i name="ewald"> -61497.89194148 </i>
    <i name="hartreedc"> -17015.88869673 </i>
    <i name="XCdc">   3074.03581576 </i>
    <i name="pawpsdc"> 113565.77235722 </i>
    <i name="pawaedc">-112618.53400629 </i>
    <i name="eentropy">     -0.00000000 </i>
    <i name="bandstr">  -7115.37349114 </i>
    <i name="atom">  74916.81196153 </i>
    <i name="e_fr_energy">  -1089.15588287 </i>
    <i name="e_wo_entrp">  -1089.15588287 </i>
    <i name="e_0_energy">  -1089.15588287 </i>
   </energy>
  </scstep>
  <structure>
   <crystal>
    <varray name="basis" >
     <v>      11.22740975      -0.00692839       0.01070093 </v>
     <v>      -0.00690653      11.25366880      -0.00103926 </v>
     <v>       0.01526857      -0.00148788      15.92828332 </v>
    </varray>
    <i name="volume">   2012.52882476 </i>
    <varray name="rec_basis" >
     <v>       0.08906785       0.00005465      -0.00008537 </v>
     <v>       0.00005483       0.08885994       0.00000825 </v>
     <v>      -0.00005983       0.00000576       0.06278146 </v>
    </varray>
   </crystal>
   <varray name="positions" >
    <v>       0.00799579       0.24859600       0.12045098 </v>
    <v>       0.98692659       0.24530202       0.62759522 </v>
    <v>       0.00338754       0.75723561       0.11627736 </v>
    <v>       0.99916580       0.75943484       0.63342939 </v>
    <v>       0.49911631       0.24685909       0.12190348 </v>
    <v>       0.50523100       0.24893134       0.62851836 </v>
    <v>       0.49856634       0.75923112       0.11915850 </v>
    <v>       0.49906073       0.75746617       0.63128408 </v>
    <v>       0.00191675       0.23095498       0.37720746 </v>
    <v>       0.99740540       0.25259390       0.87325789 </v>
    <v>       0.00006370       0.75940616       0.37616342 </v>
    <v>       0.00496332       0.75052193       0.87531982 </v>
    <v>       0.49725933       0.22832389       0.37371384 </v>
    <v>       0.50296826       0.25223943       0.87433139 </v>
    <v>       0.49905908       0.75851529       0.37306944 </v>
    <v>       0.49564613       0.75157175       0.87616450 </v>
    <v>       0.25282287       0.99845715       0.12295199 </v>
    <v>       0.24616154       0.98567897       0.62749740 </v>
    <v>       0.25149488       0.50694314       0.11154587 </v>
    <v>       0.24738935       0.50928448       0.63638892 </v>
    <v>       0.74898764       0.98563855       0.12221510 </v>
    <v>       0.74994653       0.00300597       0.62600040 </v>
    <v>       0.75404606       0.50771353       0.11480090 </v>
    <v>       0.74914453       0.50213070       0.63812322 </v>
    <v>       0.24926095       0.98728534       0.37477361 </v>
    <v>       0.24965952       0.99285512       0.87405177 </v>
    <v>       0.24987699       0.50867356       0.36332352 </v>
    <v>       0.25097987       0.50943129       0.87498181 </v>
    <v>       0.74999421       0.98713469       0.37562040 </v>
    <v>       0.75029285       0.99994904       0.87601090 </v>
    <v>       0.75052840       0.50849069       0.38669953 </v>
    <v>       0.75005911       0.50227843       0.87524237 </v>
    <v>       0.00013669       0.00079243       0.99982303 </v>
    <v>       0.99987617       0.50335245       0.99728605 </v>
    <v>       0.75037389       0.25051434       0.49139185 </v>
    <v>       0.49991315       0.00073604       0.00201462 </v>
    <v>       0.50025670       0.99446894       0.49954247 </v>
    <v>       0.50248369       0.50260758       0.99855941 </v>
    <v>       0.75098634       0.25117465       0.00034528 </v>
    <v>       0.24936511       0.25186925       0.74655137 </v>
    <v>       0.24856959       0.25191101       0.25544771 </v>
    <v>       0.24767621       0.74082961       0.49733061 </v>
    <v>       0.25002932       0.75502393       0.24548467 </v>
    <v>       0.25053209       0.25071147       0.99456467 </v>
    <v>       0.75336507       0.75529817       0.50414596 </v>
    <v>       0.75025971       0.74140278       0.25282456 </v>
    <v>       0.75003011       0.75261405       0.75362806 </v>
    <v>       0.99878794       0.00346779       0.74846836 </v>
    <v>       0.50035691       0.00410657       0.74975833 </v>
    <v>       0.00053719       0.50043102       0.75226579 </v>
    <v>       0.49908819       0.50024718       0.75198511 </v>
    <v>       0.00176796       0.99525368       0.24993275 </v>
    <v>       0.74684053       0.22254230       0.24742066 </v>
    <v>       0.51495445       0.51032423       0.51217463 </v>
    <v>       0.25040397       0.22339750       0.50397773 </v>
    <v>       0.25093076       0.74962258       0.75223851 </v>
    <v>       0.48561601       0.50883695       0.23756706 </v>
    <v>       0.99691593       0.99453137       0.50088058 </v>
    <v>       0.74972033       0.74880595       0.99837242 </v>
    <v>       0.00882816       0.51289425       0.23742090 </v>
    <v>       0.74934431       0.25154388       0.75429616 </v>
    <v>       0.25031298       0.75262326       0.99774743 </v>
    <v>       0.99276383       0.51285291       0.51350227 </v>
    <v>       0.49869485       0.99480025       0.24954304 </v>
    <v>       0.11455730       0.13839525       0.25283324 </v>
    <v>       0.11600067       0.13916384       0.73766491 </v>
    <v>       0.11200958       0.64000685       0.25537264 </v>
    <v>       0.24307995       0.75842354       0.12465220 </v>
    <v>       0.11479687       0.85003617       0.50121950 </v>
    <v>       0.61525944       0.13739986       0.74137071 </v>
    <v>       0.61465080       0.60252656       0.27371650 </v>
    <v>       0.61652058       0.63453437       0.74052398 </v>
    <v>       0.39832832       0.37201236       0.27200457 </v>
    <v>       0.38411412       0.13909048       0.00911016 </v>
    <v>       0.38326085       0.86428184       0.25149063 </v>
    <v>       0.38530201       0.87121830       0.74961751 </v>
    <v>       0.60439286       0.13772661       0.24651584 </v>
    <v>       0.88405843       0.36756922       0.75505417 </v>
    <v>       0.88863606       0.85071932       0.24960754 </v>
    <v>       0.88471978       0.86857691       0.75948254 </v>
    <v>       0.49913909       0.01883702       0.87468218 </v>
    <v>       0.36363574       0.11901576       0.73371715 </v>
    <v>       0.36945359       0.61545454       0.74899084 </v>
    <v>       0.86492982       0.10569236       0.24992891 </v>
    <v>       0.86543575       0.11916105       0.73999917 </v>
    <v>       0.86104790       0.58516623       0.26184895 </v>
    <v>       0.86695542       0.61766818       0.74450448 </v>
    <v>       0.09971399       0.38250694       0.27461547 </v>
    <v>       0.13720992       0.38575885       0.76025810 </v>
    <v>       0.13826388       0.88930719       0.25172310 </v>
    <v>       0.13276922       0.88684054       0.74953227 </v>
    <v>       0.36019817       0.61672840       0.24329974 </v>
    <v>       0.63466945       0.38703072       0.75509228 </v>
    <v>       0.63434987       0.87129993       0.25335887 </v>
    <v>       0.63393618       0.88631650       0.75515678 </v>
    <v>       0.36364521       0.38546187       0.99383200 </v>
    <v>       0.36785596       0.88787103       0.99615759 </v>
    <v>       0.36780841       0.87536465       0.49903249 </v>
    <v>       0.90151893       0.38402697       0.47493435 </v>
    <v>       0.86603843       0.88696663       0.99938730 </v>
    <v>       0.86126360       0.88829536       0.49660914 </v>
    <v>       0.13588369       0.12003184       0.01237878 </v>
    <v>       0.12757163       0.11328521       0.50173286 </v>
    <v>       0.13278201       0.61520596       0.00295943 </v>
    <v>       0.14036054       0.58679534       0.48824924 </v>
    <v>       0.63670628       0.11854682       0.01495110 </v>
    <v>       0.63624143       0.12088024       0.49075820 </v>
    <v>       0.63385661       0.61405289       0.00133144 </v>
    <v>       0.64277500       0.61651181       0.50923321 </v>
    <v>       0.11647580       0.36480325       0.99275868 </v>
    <v>       0.24676382       0.28690814       0.61428312 </v>
    <v>       0.11418273       0.87111109       0.99385156 </v>
    <v>       0.86459781       0.38600350       0.99255443 </v>
    <v>       0.61561936       0.36347411       0.99462993 </v>
    <v>       0.25097913       0.22971418       0.87340893 </v>
    <v>       0.61592480       0.86949901       0.99815508 </v>
    <v>       0.61584951       0.86417377       0.49692687 </v>
    <v>       0.11445790       0.63354265       0.74466823 </v>
    <v>       0.39035451       0.13343628       0.50489634 </v>
    <v>       0.38656405       0.63229803       0.00904513 </v>
    <v>       0.38716746       0.60457291       0.47538851 </v>
    <v>       0.88460093       0.13798666       0.01184226 </v>
    <v>       0.87722848       0.13762320       0.49450055 </v>
    <v>       0.88622212       0.63469328       0.00496005 </v>
    <v>       0.88987127       0.64063306       0.49915128 </v>
    <v>       0.00217814       0.99241037       0.12683295 </v>
    <v>       0.99440166       0.99126607       0.62486784 </v>
    <v>       0.99961956       0.48380187       0.12274008 </v>
    <v>       0.00557278       0.48047434       0.62705064 </v>
    <v>       0.74792173       0.27789875       0.60908423 </v>
    <v>       0.50951952       0.99305223       0.62243894 </v>
    <v>       0.51143031       0.48083212       0.12450349 </v>
    <v>       0.48812442       0.48159873       0.62560548 </v>
    <v>       0.00126496       0.99397676       0.37358207 </v>
    <v>       0.00140961       0.02019379       0.87540053 </v>
    <v>       0.59609773       0.37288501       0.47429511 </v>
    <v>       0.99852083       0.51201703       0.87461761 </v>
    <v>       0.49778564       0.99679744       0.37610851 </v>
    <v>       0.50106622       0.51028981       0.87512261 </v>
    <v>       0.24639791       0.28055940       0.39228322 </v>
    <v>       0.35565600       0.12226305       0.25888256 </v>
    <v>       0.24969883       0.75039465       0.37348320 </v>
    <v>       0.25207350       0.74430945       0.87485173 </v>
    <v>       0.75474212       0.28041661       0.35878601 </v>
    <v>       0.75000876       0.23339539       0.87871059 </v>
    <v>       0.75295228       0.74706855       0.37737315 </v>
    <v>       0.74791384       0.74037793       0.87403520 </v>
    <v>       0.24975610       0.27688339       0.13654886 </v>
    <v>       0.49419176       0.99304437       0.12611119 </v>
    <v>       0.25838134       0.73745686       0.61838603 </v>
    <v>       0.75716508       0.28656551       0.13864078 </v>
    <v>       0.38415365       0.36373808       0.75733114 </v>
    <v>       0.74375747       0.73806584       0.13153173 </v>
    <v>       0.75657970       0.76400863       0.62671659 </v>
   </varray>
  </structure>
  <varray name="forces" >
   <v>       0.00056938       0.00276054      -0.00692444 </v>
   <v>      -0.00031772       0.00291536       0.00303558 </v>
   <v>      -0.00169563       0.00018693      -0.00124713 </v>
   <v>      -0.00081831      -0.00786391      -0.00325299 </v>
   <v>      -0.00220901       0.00185113       0.00206420 </v>
   <v>       0.00528396      -0.00230332       0.00696027 </v>
   <v>       0.00529531      -0.00211212      -0.00558880 </v>
   <v>       0.00258568      -0.00608139       0.00484779 </v>
   <v>      -0.00095091       0.01110826      -0.00592253 </v>
   <v>       0.00472614      -0.00331180       0.00360402 </v>
   <v>      -0.00100865      -0.00476179       0.00617069 </v>
   <v>      -0.00359558       0.00347703      -0.00205910 </v>
   <v>       0.00022293      -0.00455801       0.00394423 </v>
   <v>      -0.00558200       0.00563875       0.00567796 </v>
   <v>       0.00192047      -0.00156122       0.00163833 </v>
   <v>       0.00585263       0.00002027      -0.00445464 </v>
   <v>       0.00549146      -0.00330564      -0.00395701 </v>
   <v>       0.00139929       0.00990196       0.00019378 </v>
   <v>       0.00646878       0.00011110       0.00120731 </v>
   <v>       0.00025687       0.00215445      -0.00295688 </v>
   <v>       0.00212492       0.00842227      -0.00411412 </v>
   <v>       0.00919133      -0.00084185       0.00503848 </v>
   <v>       0.00082555      -0.00359546       0.00201252 </v>
   <v>       0.00031602      -0.00621189      -0.00830209 </v>
   <v>       0.00332410       0.00500387       0.00708458 </v>
   <v>      -0.00037247       0.00378880      -0.00660114 </v>
   <v>       0.00142262       0.00055460      -0.00104107 </v>
   <v>       0.00281716      -0.00600117      -0.00716273 </v>
   <v>      -0.00624444       0.00435265      -0.00333575 </v>
   <v>      -0.00026832       0.00370620       0.00354737 </v>
   <v>       0.00055430       0.00373132      -0.00361173 </v>
   <v>      -0.00542295      -0.00749227       0.00216936 </v>
   <v>       0.00098578      -0.00457286      -0.00471523 </v>
   <v>       0.00783646       0.00065513       0.00858387 </v>
   <v>       0.00990199       0.00346652       0.00271929 </v>
   <v>      -0.00636849       0.00099421       0.00273611 </v>
   <v>      -0.00827002       0.00126337      -0.00054585 </v>
   <v>      -0.00488563       0.00073484      -0.00652207 </v>
   <v>       0.01212535      -0.01543652      -0.00127601 </v>
   <v>      -0.00191530      -0.00740238       0.00302470 </v>
   <v>      -0.02710414       0.00881129      -0.00814624 </v>
   <v>      -0.00442353       0.00043629       0.00716189 </v>
   <v>      -0.00904395       0.00907906       0.00389338 </v>
   <v>      -0.00459201      -0.00959210       0.00943593 </v>
   <v>       0.01560077       0.00661865      -0.00819074 </v>
   <v>       0.00740913       0.00738556       0.00426739 </v>
   <v>       0.00532466      -0.00395052       0.00841529 </v>
   <v>      -0.00052828       0.00856100       0.00425566 </v>
   <v>       0.00472939       0.00346930       0.00363732 </v>
   <v>      -0.00361571      -0.00658314      -0.01930515 </v>
   <v>       0.00210712       0.00713860      -0.00639939 </v>
   <v>      -0.00263069       0.00523766       0.00285771 </v>
   <v>      -0.00674652      -0.00028500       0.00046003 </v>
   <v>      -0.00091850       0.00125627       0.00497958 </v>
   <v>       0.00001738      -0.00185619      -0.00103106 </v>
   <v>      -0.00485672      -0.00261235      -0.00575782 </v>
   <v>      -0.01018458       0.00361211      -0.00205506 </v>
   <v>       0.00338851       0.00502634       0.00064801 </v>
   <v>       0.00434812       0.00595749      -0.00555080 </v>
   <v>       0.00098985       0.00261476       0.00776226 </v>
   <v>      -0.00387870      -0.00936832       0.00341939 </v>
   <v>      -0.00045975       0.00405762      -0.00940840 </v>
   <v>      -0.00364171      -0.00375189      -0.00330310 </v>
   <v>       0.00336932       0.00024483      -0.00953709 </v>
   <v>      -0.00235903       0.01074021      -0.00621532 </v>
   <v>       0.01382286      -0.01091366      -0.00741604 </v>
   <v>      -0.00112070       0.01137500      -0.00013383 </v>
   <v>       0.00741949       0.00164644      -0.00288492 </v>
   <v>      -0.00007176       0.00478194       0.00046620 </v>
   <v>       0.00010863      -0.01148429       0.00327556 </v>
   <v>      -0.00387546       0.00978355      -0.01476200 </v>
   <v>       0.00597880      -0.00881886       0.00367175 </v>
   <v>       0.00047793       0.00450268      -0.00205229 </v>
   <v>      -0.00458784      -0.00449419       0.00848640 </v>
   <v>      -0.00306305       0.00049443      -0.00047449 </v>
   <v>      -0.00818625       0.00341189      -0.00824143 </v>
   <v>       0.00291079       0.01229778       0.01013850 </v>
   <v>      -0.00651780       0.00822362      -0.00543207 </v>
[...]
       <r>   -16.5785     0.0000    32.0000 </r>
       <r>   -16.4259     0.0000    32.0000 </r>
       <r>   -16.2733     0.0000    32.0000 </r>
       <r>   -16.1207     0.0000    32.0000 </r>
       <r>   -15.9681     0.0000    32.0000 </r>
       <r>   -15.8155     0.0000    32.0000 </r>
       <r>   -15.6629     0.0000    32.0000 </r>
       <r>   -15.5103     0.0000    32.0000 </r>
       <r>   -15.3577     0.0000    32.0000 </r>
       <r>   -15.2051     0.1332    32.0203 </r>
       <r>   -15.0525    15.1730    34.3357 </r>
       <r>   -14.8999    40.8129    40.5636 </r>
       <r>   -14.7473    54.8150    48.9282 </r>
       <r>   -14.5947    37.5571    54.6593 </r>
       <r>   -14.4421    32.6909    59.6478 </r>
       <r>   -14.2895    42.7997    66.1789 </r>
       <r>   -14.1369    77.8898    78.0646 </r>
       <r>   -13.9843   115.8143    95.7375 </r>
       <r>   -13.8317   103.4676   111.5263 </r>
       <r>   -13.6791    58.5459   120.4602 </r>
       <r>   -13.5265     9.2773   121.8759 </r>
       <r>   -13.3739     0.8131   122.0000 </r>
       <r>   -13.2213     0.0000   122.0000 </r>
       <r>   -13.0687     0.0000   122.0000 </r>
       <r>   -12.9161     0.0000   122.0000 </r>
       <r>   -12.7635     0.6574   122.1003 </r>
       <r>   -12.6110    54.0528   130.3486 </r>
       <r>   -12.4584   150.6195   153.3326 </r>
       <r>   -12.3058   142.5475   175.0849 </r>
       <r>   -12.1532   118.8411   193.2197 </r>
       <r>   -12.0006   104.8334   209.2170 </r>
       <r>   -11.8480    47.9784   216.5383 </r>
       <r>   -11.6954     9.5786   218.0000 </r>
       <r>   -11.5428     0.0002   218.0000 </r>
       <r>   -11.3902     0.0000   218.0000 </r>
       <r>   -11.2376     0.0000   218.0000 </r>
       <r>   -11.0850     0.0000   218.0000 </r>
       <r>   -10.9324     0.0000   218.0000 </r>
       <r>   -10.7798     0.0000   218.0000 </r>
       <r>   -10.6272     0.0000   218.0000 </r>
       <r>   -10.4746     0.0000   218.0000 </r>
       <r>   -10.3220     0.0000   218.0000 </r>
       <r>   -10.1694     0.0000   218.0000 </r>
       <r>   -10.0168     0.0000   218.0000 </r>
       <r>    -9.8642     0.0000   218.0000 </r>
       <r>    -9.7116     0.0000   218.0000 </r>
       <r>    -9.5590     0.0000   218.0000 </r>
       <r>    -9.4064     0.0000   218.0000 </r>
       <r>    -9.2538     0.0000   218.0000 </r>
       <r>    -9.1012     0.0000   218.0000 </r>
       <r>    -8.9486     0.0000   218.0000 </r>
       <r>    -8.7960     0.0000   218.0000 </r>
       <r>    -8.6434     0.0000   218.0000 </r>
       <r>    -8.4908     0.0000   218.0000 </r>
       <r>    -8.3382     0.0000   218.0000 </r>
       <r>    -8.1856     0.0000   218.0000 </r>
       <r>    -8.0330     0.0000   218.0000 </r>
       <r>    -7.8805     0.0000   218.0000 </r>
       <r>    -7.7279     0.0000   218.0000 </r>
       <r>    -7.5753     0.0000   218.0000 </r>
       <r>    -7.4227     0.0000   218.0000 </r>
       <r>    -7.2701     0.0000   218.0000 </r>
       <r>    -7.1175     0.0000   218.0000 </r>
       <r>    -6.9649     0.0000   218.0000 </r>
       <r>    -6.8123     0.0000   218.0000 </r>
       <r>    -6.6597     0.0000   218.0000 </r>
       <r>    -6.5071     0.0000   218.0000 </r>
       <r>    -6.3545     0.0000   218.0000 </r>
       <r>    -6.2019     0.0000   218.0000 </r>
       <r>    -6.0493     0.0000   218.0000 </r>
       <r>    -5.8967     0.0000   218.0000 </r>
       <r>    -5.7441     0.0000   218.0000 </r>
       <r>    -5.5915     0.0000   218.0000 </r>
       <r>    -5.4389     0.0000   218.0000 </r>
       <r>    -5.2863     0.0000   218.0000 </r>
       <r>    -5.1337     0.0000   218.0000 </r>
       <r>    -4.9811     0.0000   218.0000 </r>
       <r>    -4.8285     0.0000   218.0000 </r>
       <r>    -4.6759     0.0000   218.0000 </r>
       <r>    -4.5233     0.0000   218.0000 </r>
       <r>    -4.3707     0.0000   218.0000 </r>
       <r>    -4.2181     0.0000   218.0000 </r>
       <r>    -4.0655     0.0000   218.0000 </r>
       <r>    -3.9129     0.0000   218.0000 </r>
       <r>    -3.7603     0.0000   218.0000 </r>
       <r>    -3.6077     0.0000   218.0000 </r>
       <r>    -3.4551     0.0000   218.0000 </r>
       <r>    -3.3025     0.0000   218.0000 </r>
       <r>    -3.1500     0.0000   218.0000 </r>
       <r>    -2.9974     0.0000   218.0000 </r>
       <r>    -2.8448     0.0000   218.0000 </r>
       <r>    -2.6922     0.0000   218.0000 </r>
       <r>    -2.5396     0.0015   218.0002 </r>
       <r>    -2.3870     6.1898   218.9448 </r>
       <r>    -2.2344    16.5376   221.4684 </r>
       <r>    -2.0818    21.4575   224.7427 </r>
       <r>    -1.9292    25.5814   228.6463 </r>
       <r>    -1.7766    32.9185   233.6696 </r>
       <r>    -1.6240    45.6842   240.6409 </r>
       <r>    -1.4714    48.9692   248.1134 </r>
       <r>    -1.3188    55.2409   256.5430 </r>
       <r>    -1.1662    70.0260   267.2287 </r>
       <r>    -1.0136    80.4680   279.5079 </r>
       <r>    -0.8610    79.3489   291.6163 </r>
       <r>    -0.7084    82.1798   304.1567 </r>
       <r>    -0.5558    94.0527   318.5088 </r>
       <r>    -0.4032    99.5342   333.6974 </r>
       <r>    -0.2506    74.3287   345.0397 </r>
       <r>    -0.0980    59.2362   354.0790 </r>
       <r>     0.0546    48.2527   361.4422 </r>
       <r>     0.2072    53.8939   369.6662 </r>
       <r>     0.3598    57.4659   378.4353 </r>
       <r>     0.5124    55.3277   386.8781 </r>
       <r>     0.6650    57.9319   395.7183 </r>
       <r>     0.8176    45.4427   402.6528 </r>
       <r>     0.9702    56.1789   411.2255 </r>
       <r>     1.1228    57.2966   419.9688 </r>
       <r>     1.2754    82.5547   432.5663 </r>
       <r>     1.4280    89.8449   446.2764 </r>
       <r>     1.5805    82.8218   458.9147 </r>
       <r>     1.7331    63.1565   468.5522 </r>
       <r>     1.8857    63.1319   478.1859 </r>
       <r>     2.0383    29.1307   482.6312 </r>
       <r>     2.1909    28.6065   486.9964 </r>
       <r>     2.3435     6.5764   488.0000 </r>
       <r>     2.4961     0.0001   488.0000 </r>
       <r>     2.6487     0.0000   488.0000 </r>
       <r>     2.8013     0.0000   488.0000 </r>
       <r>     2.9539     0.0000   488.0000 </r>
       <r>     3.1065     0.0000   488.0000 </r>
       <r>     3.2591     0.0000   488.0000 </r>
       <r>     3.4117     0.0000   488.0000 </r>
       <r>     3.5643     0.0000   488.0000 </r>
       <r>     3.7169     0.0000   488.0000 </r>
       <r>     3.8695     0.0000   488.0000 </r>
       <r>     4.0221     0.0000   488.0000 </r>
       <r>     4.1747     0.0000   488.0000 </r>
       <r>     4.3273     0.0001   488.0000 </r>
       <r>     4.4799     6.9942   489.0673 </r>
       <r>     4.6325    38.0248   494.8698 </r>
       <r>     4.7851    46.9867   502.0398 </r>
       <r>     4.9377    50.2783   509.7121 </r>
       <r>     5.0903    55.1747   518.1316 </r>
       <r>     5.2429    67.2858   528.3992 </r>
       <r>     5.3955    72.5330   539.4674 </r>
       <r>     5.5481    76.7159   551.1740 </r>
       <r>     5.7007    72.3665   562.2169 </r>
       <r>     5.8533    72.9580   573.3501 </r>
       <r>     6.0059    78.6551   585.3526 </r>
       <r>     6.1585    67.9571   595.7226 </r>
       <r>     6.3110    64.5956   605.5797 </r>
       <r>     6.4636    29.4357   610.0715 </r>
       <r>     6.6162    12.1957   611.9325 </r>
       <r>     6.7688    14.1530   614.0923 </r>
       <r>     6.9214    22.7963   617.5709 </r>
       <r>     7.0740    18.5732   620.4051 </r>
       <r>     7.2266    16.2190   622.8801 </r>
       <r>     7.3792    20.9263   626.0733 </r>
       <r>     7.5318    16.6324   628.6114 </r>
       <r>     7.6844    14.6760   630.8509 </r>
       <r>     7.8370    13.0682   632.8451 </r>
       <r>     7.9896    24.0729   636.5185 </r>
       <r>     8.1422    26.4768   640.5588 </r>
       <r>     8.2948    26.2429   644.5634 </r>
       <r>     8.4474    28.3642   648.8917 </r>
       <r>     8.6000    24.3163   652.6023 </r>
       <r>     8.7526    26.4816   656.6433 </r>
       <r>     8.9052    35.8642   662.1160 </r>
       <r>     9.0578    33.7009   667.2587 </r>
       <r>     9.2104    38.3067   673.1041 </r>
       <r>     9.3630    42.1179   679.5312 </r>
       <r>     9.5156    44.7112   686.3540 </r>
       <r>     9.6682    45.1016   693.2363 </r>
       <r>     9.8208    57.3062   701.9811 </r>
       <r>     9.9734    58.3571   710.8862 </r>
       <r>    10.1260    62.0657   720.3572 </r>
       <r>    10.2786    61.4396   729.7327 </r>
       <r>    10.4312    51.2233   737.5492 </r>
       <r>    10.5838    55.9003   746.0794 </r>
       <r>    10.7364    58.9984   755.0824 </r>
       <r>    10.8890    61.2770   764.4330 </r>
       <r>    11.0415    23.3610   767.9979 </r>
       <r>    11.1941     0.0140   768.0000 </r>
       <r>    11.3467     0.0000   768.0000 </r>
       <r>    11.4993     0.0000   768.0000 </r>
       <r>    11.6519     0.0000   768.0000 </r>
       <r>    11.8045     0.0000   768.0000 </r>
       <r>    11.9571     0.0000   768.0000 </r>
       <r>    12.1097     0.0000   768.0000 </r>
       <r>    12.2623     0.0000   768.0000 </r>
       <r>    12.4149     0.0000   768.0000 </r>
       <r>    12.5675     0.0000   768.0000 </r>
       <r>    12.7201     0.0000   768.0000 </r>
       <r>    12.8727     0.0000   768.0000 </r>
       <r>    13.0253     0.0000   768.0000 </r>
      </set>
     </set>
    </array>
   </total>
  </dos>
 </calculation>
 <structure name="finalpos" >
  <crystal>
   <varray name="basis" >
    <v>      11.22740975      -0.00692839       0.01070093 </v>
    <v>      -0.00690653      11.25366880      -0.00103926 </v>
    <v>       0.01526857      -0.00148788      15.92828332 </v>
   </varray>
   <i name="volume">   2012.52882476 </i>
   <varray name="rec_basis" >
    <v>       0.08906785       0.00005465      -0.00008537 </v>
    <v>       0.00005483       0.08885994       0.00000825 </v>
    <v>      -0.00005983       0.00000576       0.06278146 </v>
   </varray>
  </crystal>
  <varray name="positions" >
   <v>       0.00799579       0.24859600       0.12045098 </v>
   <v>       0.98692659       0.24530202       0.62759522 </v>
   <v>       0.00338754       0.75723561       0.11627736 </v>
   <v>       0.99916580       0.75943484       0.63342939 </v>
   <v>       0.49911631       0.24685909       0.12190348 </v>
   <v>       0.50523100       0.24893134       0.62851836 </v>
   <v>       0.49856634       0.75923112       0.11915850 </v>
   <v>       0.49906073       0.75746617       0.63128408 </v>
   <v>       0.00191675       0.23095498       0.37720746 </v>
   <v>       0.99740540       0.25259390       0.87325789 </v>
   <v>       0.00006370       0.75940616       0.37616342 </v>
   <v>       0.00496332       0.75052193       0.87531982 </v>
   <v>       0.49725933       0.22832389       0.37371384 </v>
   <v>       0.50296826       0.25223943       0.87433139 </v>
   <v>       0.49905908       0.75851529       0.37306944 </v>
   <v>       0.49564613       0.75157175       0.87616450 </v>
   <v>       0.25282287       0.99845715       0.12295199 </v>
   <v>       0.24616154       0.98567897       0.62749740 </v>
   <v>       0.25149488       0.50694314       0.11154587 </v>
   <v>       0.24738935       0.50928448       0.63638892 </v>
   <v>       0.74898764       0.98563855       0.12221510 </v>
   <v>       0.74994653       0.00300597       0.62600040 </v>
   <v>       0.75404606       0.50771353       0.11480090 </v>
   <v>       0.74914453       0.50213070       0.63812322 </v>
   <v>       0.24926095       0.98728534       0.37477361 </v>
   <v>       0.24965952       0.99285512       0.87405177 </v>
   <v>       0.24987699       0.50867356       0.36332352 </v>
   <v>       0.25097987       0.50943129       0.87498181 </v>
   <v>       0.74999421       0.98713469       0.37562040 </v>
   <v>       0.75029285       0.99994904       0.87601090 </v>
   <v>       0.75052840       0.50849069       0.38669953 </v>
   <v>       0.75005911       0.50227843       0.87524237 </v>
   <v>       0.00013669       0.00079243       0.99982303 </v>
   <v>       0.99987617       0.50335245       0.99728605 </v>
   <v>       0.75037389       0.25051434       0.49139185 </v>
   <v>       0.49991315       0.00073604       0.00201462 </v>
   <v>       0.50025670       0.99446894       0.49954247 </v>
   <v>       0.50248369       0.50260758       0.99855941 </v>
   <v>       0.75098634       0.25117465       0.00034528 </v>
   <v>       0.24936511       0.25186925       0.74655137 </v>
   <v>       0.24856959       0.25191101       0.25544771 </v>
   <v>       0.24767621       0.74082961       0.49733061 </v>
   <v>       0.25002932       0.75502393       0.24548467 </v>
   <v>       0.25053209       0.25071147       0.99456467 </v>
   <v>       0.75336507       0.75529817       0.50414596 </v>
   <v>       0.75025971       0.74140278       0.25282456 </v>
   <v>       0.75003011       0.75261405       0.75362806 </v>
   <v>       0.99878794       0.00346779       0.74846836 </v>
   <v>       0.50035691       0.00410657       0.74975833 </v>
   <v>       0.00053719       0.50043102       0.75226579 </v>
   <v>       0.49908819       0.50024718       0.75198511 </v>
   <v>       0.00176796       0.99525368       0.24993275 </v>
   <v>       0.74684053       0.22254230       0.24742066 </v>
   <v>       0.51495445       0.51032423       0.51217463 </v>
   <v>       0.25040397       0.22339750       0.50397773 </v>
   <v>       0.25093076       0.74962258       0.75223851 </v>
   <v>       0.48561601       0.50883695       0.23756706 </v>
   <v>       0.99691593       0.99453137       0.50088058 </v>
   <v>       0.74972033       0.74880595       0.99837242 </v>
   <v>       0.00882816       0.51289425       0.23742090 </v>
   <v>       0.74934431       0.25154388       0.75429616 </v>
   <v>       0.25031298       0.75262326       0.99774743 </v>
   <v>       0.99276383       0.51285291       0.51350227 </v>
   <v>       0.49869485       0.99480025       0.24954304 </v>
   <v>       0.11455730       0.13839525       0.25283324 </v>
   <v>       0.11600067       0.13916384       0.73766491 </v>
   <v>       0.11200958       0.64000685       0.25537264 </v>
   <v>       0.24307995       0.75842354       0.12465220 </v>
   <v>       0.11479687       0.85003617       0.50121950 </v>
   <v>       0.61525944       0.13739986       0.74137071 </v>
   <v>       0.61465080       0.60252656       0.27371650 </v>
   <v>       0.61652058       0.63453437       0.74052398 </v>
   <v>       0.39832832       0.37201236       0.27200457 </v>
   <v>       0.38411412       0.13909048       0.00911016 </v>
   <v>       0.38326085       0.86428184       0.25149063 </v>
   <v>       0.38530201       0.87121830       0.74961751 </v>
   <v>       0.60439286       0.13772661       0.24651584 </v>
   <v>       0.88405843       0.36756922       0.75505417 </v>
   <v>       0.88863606       0.85071932       0.24960754 </v>
   <v>       0.88471978       0.86857691       0.75948254 </v>
   <v>       0.49913909       0.01883702       0.87468218 </v>
   <v>       0.36363574       0.11901576       0.73371715 </v>
   <v>       0.36945359       0.61545454       0.74899084 </v>
   <v>       0.86492982       0.10569236       0.24992891 </v>
   <v>       0.86543575       0.11916105       0.73999917 </v>
   <v>       0.86104790       0.58516623       0.26184895 </v>
   <v>       0.86695542       0.61766818       0.74450448 </v>
   <v>       0.09971399       0.38250694       0.27461547 </v>
   <v>       0.13720992       0.38575885       0.76025810 </v>
   <v>       0.13826388       0.88930719       0.25172310 </v>
   <v>       0.13276922       0.88684054       0.74953227 </v>
   <v>       0.36019817       0.61672840       0.24329974 </v>
   <v>       0.63466945       0.38703072       0.75509228 </v>
   <v>       0.63434987       0.87129993       0.25335887 </v>
   <v>       0.63393618       0.88631650       0.75515678 </v>
   <v>       0.36364521       0.38546187       0.99383200 </v>
   <v>       0.36785596       0.88787103       0.99615759 </v>
   <v>       0.36780841       0.87536465       0.49903249 </v>
   <v>       0.90151893       0.38402697       0.47493435 </v>
   <v>       0.86603843       0.88696663       0.99938730 </v>
   <v>       0.86126360       0.88829536       0.49660914 </v>
   <v>       0.13588369       0.12003184       0.01237878 </v>
   <v>       0.12757163       0.11328521       0.50173286 </v>
   <v>       0.13278201       0.61520596       0.00295943 </v>
   <v>       0.14036054       0.58679534       0.48824924 </v>
   <v>       0.63670628       0.11854682       0.01495110 </v>
   <v>       0.63624143       0.12088024       0.49075820 </v>
   <v>       0.63385661       0.61405289       0.00133144 </v>
   <v>       0.64277500       0.61651181       0.50923321 </v>
   <v>       0.11647580       0.36480325       0.99275868 </v>
   <v>       0.24676382       0.28690814       0.61428312 </v>
   <v>       0.11418273       0.87111109       0.99385156 </v>
   <v>       0.86459781       0.38600350       0.99255443 </v>
   <v>       0.61561936       0.36347411       0.99462993 </v>
   <v>       0.25097913       0.22971418       0.87340893 </v>
   <v>       0.61592480       0.86949901       0.99815508 </v>
   <v>       0.61584951       0.86417377       0.49692687 </v>
   <v>       0.11445790       0.63354265       0.74466823 </v>
   <v>       0.39035451       0.13343628       0.50489634 </v>
   <v>       0.38656405       0.63229803       0.00904513 </v>
   <v>       0.38716746       0.60457291       0.47538851 </v>
   <v>       0.88460093       0.13798666       0.01184226 </v>
   <v>       0.87722848       0.13762320       0.49450055 </v>
   <v>       0.88622212       0.63469328       0.00496005 </v>
   <v>       0.88987127       0.64063306       0.49915128 </v>
   <v>       0.00217814       0.99241037       0.12683295 </v>
   <v>       0.99440166       0.99126607       0.62486784 </v>
   <v>       0.99961956       0.48380187       0.12274008 </v>
   <v>       0.00557278       0.48047434       0.62705064 </v>
   <v>       0.74792173       0.27789875       0.60908423 </v>
   <v>       0.50951952       0.99305223       0.62243894 </v>
   <v>       0.51143031       0.48083212       0.12450349 </v>
   <v>       0.48812442       0.48159873       0.62560548 </v>
   <v>       0.00126496       0.99397676       0.37358207 </v>
   <v>       0.00140961       0.02019379       0.87540053 </v>
   <v>       0.59609773       0.37288501       0.47429511 </v>
   <v>       0.99852083       0.51201703       0.87461761 </v>
   <v>       0.49778564       0.99679744       0.37610851 </v>
   <v>       0.50106622       0.51028981       0.87512261 </v>
   <v>       0.24639791       0.28055940       0.39228322 </v>
   <v>       0.35565600       0.12226305       0.25888256 </v>
   <v>       0.24969883       0.75039465       0.37348320 </v>
   <v>       0.25207350       0.74430945       0.87485173 </v>
   <v>       0.75474212       0.28041661       0.35878601 </v>
   <v>       0.75000876       0.23339539       0.87871059 </v>
   <v>       0.75295228       0.74706855       0.37737315 </v>
   <v>       0.74791384       0.74037793       0.87403520 </v>
   <v>       0.24975610       0.27688339       0.13654886 </v>
   <v>       0.49419176       0.99304437       0.12611119 </v>
   <v>       0.25838134       0.73745686       0.61838603 </v>
   <v>       0.75716508       0.28656551       0.13864078 </v>
   <v>       0.38415365       0.36373808       0.75733114 </v>
   <v>       0.74375747       0.73806584       0.13153173 </v>
   <v>       0.75657970       0.76400863       0.62671659 </v>
  </varray>
 </structure>
</modeling>
