       N       E                     dE             d eps       ncg     rms          rms(c)
DAV:   1    -0.992447715487E+03   -0.99245E+03   -0.12409E-02 13776   0.267E-01    0.246E-02
RMM:   2    -0.992447715926E+03   -0.43896E-06   -0.19011E-05  6749   0.760E-03    0.419E-02
RMM:   3    -0.992447716058E+03   -0.13162E-06   -0.63161E-06  6406   0.480E-03    0.529E-03
RMM:   4    -0.992447716234E+03   -0.17685E-06   -0.22766E-06  3462   0.227E-03    0.409E-03
RMM:   5    -0.992447716364E+03   -0.12982E-06   -0.13721E-06  3140   0.243E-03    0.339E-03
RMM:   6    -0.992447716518E+03   -0.15400E-06   -0.92264E-07  2641   0.203E-03    0.157E-03
RMM:   7    -0.992447716631E+03   -0.11295E-06   -0.60406E-07  2533   0.209E-03    0.126E-03
RMM:   8    -0.992447716740E+03   -0.10926E-06   -0.40364E-07  2154   0.195E-03
   1 F= -.99244772E+03 E0= -.99244766E+03  d E =-.992448E+03  mag=   116.0000
       N       E                     dE             d eps       ncg     rms          rms(c)
DAV:   1    -0.992447269449E+03    0.44718E-03   -0.45898E-01 12528   0.801E-01    0.355E-01
RMM:   2    -0.992449030785E+03   -0.17613E-02   -0.13657E-02 12652   0.169E-01    0.245E-01
RMM:   3    -0.992449185891E+03   -0.15511E-03   -0.77024E-04 10892   0.463E-02    0.144E-01
RMM:   4    -0.992449142432E+03    0.43459E-04   -0.97290E-05  7556   0.165E-02    0.929E-02
RMM:   5    -0.992449117216E+03    0.25216E-04   -0.12187E-04  7406   0.135E-02    0.349E-02
RMM:   6    -0.992449121749E+03   -0.45334E-05   -0.22645E-05  7188   0.895E-03    0.228E-02
RMM:   7    -0.992449123182E+03   -0.14330E-05   -0.98217E-06  6975   0.459E-03    0.143E-02
RMM:   8    -0.992449124462E+03   -0.12799E-05   -0.42492E-06  5809   0.388E-03
   2 F= -.99244912E+03 E0= -.99244907E+03  d E =-.140772E-02  mag=   116.0000
       N       E                     dE             d eps       ncg     rms          rms(c)
DAV:   1    -0.992448855477E+03    0.26771E-03   -0.10681E-01 12416   0.387E-01    0.171E-01
RMM:   2    -0.992449268578E+03   -0.41310E-03   -0.31899E-03 12337   0.813E-02    0.117E-01
RMM:   3    -0.992449302373E+03   -0.33796E-04   -0.15331E-04  8065   0.240E-02    0.750E-02
RMM:   4    -0.992449297530E+03    0.48428E-05   -0.36871E-05  7167   0.105E-02    0.456E-02
RMM:   5    -0.992449292634E+03    0.48968E-05   -0.32184E-05  7105   0.683E-03    0.225E-02
RMM:   6    -0.992449293845E+03   -0.12113E-05   -0.79607E-06  6424   0.520E-03    0.196E-02
RMM:   7    -0.992449294623E+03   -0.77792E-06   -0.32793E-06  5000   0.270E-03    0.780E-03
RMM:   8    -0.992449295181E+03   -0.55849E-06   -0.15009E-06  4094   0.272E-03
   3 F= -.99244930E+03 E0= -.99244924E+03  d E =-.157844E-02  mag=   116.0000
       N       E                     dE             d eps       ncg     rms          rms(c)
DAV:   1    -0.992449304330E+03   -0.97069E-05   -0.31508E-01 12632   0.660E-01    0.217E-01
RMM:   2    -0.992450316106E+03   -0.10118E-02   -0.83959E-03 12757   0.126E-01    0.133E-01
RMM:   3    -0.992450373207E+03   -0.57101E-04   -0.39557E-04  9552   0.349E-02    0.747E-02
RMM:   4    -0.992450353795E+03    0.19412E-04   -0.70073E-05  7238   0.128E-02    0.490E-02
RMM:   5    -0.992450345119E+03    0.86758E-05   -0.41744E-05  7175   0.938E-03    0.358E-02
RMM:   6    -0.992450346063E+03   -0.94442E-06   -0.17070E-05  6948   0.656E-03    0.143E-02
RMM:   7    -0.992450346530E+03   -0.46671E-06   -0.68879E-06  6403   0.436E-03    0.104E-02
RMM:   8    -0.992450346588E+03   -0.58557E-07   -0.36212E-06  4960   0.306E-03
   4 F= -.99245035E+03 E0= -.99245029E+03  d E =-.105141E-02  mag=   116.0000
       N       E                     dE             d eps       ncg     rms          rms(c)
DAV:   1    -0.992446619792E+03    0.37267E-02   -0.14310E+00 12384   0.141E+00    0.463E-01
RMM:   2    -0.992451215432E+03   -0.45956E-02   -0.38078E-02 12759   0.267E-01    0.283E-01
RMM:   3    -0.992451502933E+03   -0.28750E-03   -0.20795E-03 12734   0.743E-02    0.158E-01
RMM:   4    -0.992451393723E+03    0.10921E-03   -0.30230E-04  9125   0.221E-02    0.981E-02
RMM:   5    -0.992451350204E+03    0.43518E-04   -0.16801E-04  7533   0.171E-02    0.638E-02
RMM:   6    -0.992451354163E+03   -0.39583E-05   -0.45573E-05  7275   0.123E-02    0.360E-02
RMM:   7    -0.992451355718E+03   -0.15550E-05   -0.19797E-05  7203   0.693E-03    0.174E-02
RMM:   8    -0.992451355832E+03   -0.11409E-06   -0.10232E-05  7024   0.574E-03
   5 F= -.99245136E+03 E0= -.99245131E+03  d E =-.206065E-02  mag=   116.0000
       N       E                     dE             d eps       ncg     rms          rms(c)
DAV:   1    -0.992451292889E+03    0.62828E-04   -0.32923E-01 12656   0.668E-01    0.192E-01
RMM:   2    -0.992452280579E+03   -0.98769E-03   -0.86356E-03 12794   0.125E-01    0.118E-01
RMM:   3    -0.992452318502E+03   -0.37923E-04   -0.39675E-04  9376   0.342E-02    0.677E-02
RMM:   4    -0.992452303242E+03    0.15260E-04   -0.64425E-05  7241   0.125E-02    0.438E-02
RMM:   5    -0.992452295590E+03    0.76513E-05   -0.44638E-05  7157   0.909E-03    0.271E-02
RMM:   6    -0.992452297872E+03   -0.22814E-05   -0.16005E-05  6912   0.620E-03    0.106E-02
RMM:   7    -0.992452298672E+03   -0.80054E-06   -0.69915E-06  6236   0.424E-03    0.879E-03
RMM:   8    -0.992452299197E+03   -0.52493E-06   -0.39025E-06  4968   0.314E-03
   6 F= -.99245230E+03 E0= -.99245225E+03  d E =-.943365E-03  mag=   116.0000
       N       E                     dE             d eps       ncg     rms          rms(c)
DAV:   1    -0.992444757891E+03    0.75408E-02   -0.29615E+00 12640   0.200E+00    0.575E-01
RMM:   2    -0.992453539780E+03   -0.87819E-02   -0.76779E-02 12788   0.374E-01    0.353E-01
RMM:   3    -0.992453953672E+03   -0.41389E-03   -0.40745E-03 12910   0.102E-01    0.201E-01
RMM:   4    -0.992453773681E+03    0.17999E-03   -0.53635E-04 11228   0.286E-02    0.126E-01
RMM:   5    -0.992453694796E+03    0.78885E-04   -0.40939E-04  9657   0.213E-02    0.474E-02
RMM:   6    -0.992453700513E+03   -0.57164E-05   -0.49554E-05  7343   0.125E-02    0.280E-02
RMM:   7    -0.992453703046E+03   -0.25330E-05   -0.22787E-05  7255   0.643E-03    0.166E-02
RMM:   8    -0.992453704092E+03   -0.10460E-05   -0.12869E-05  7090   0.624E-03
   7 F= -.99245370E+03 E0= -.99245366E+03  d E =-.234826E-02  mag=   116.0000
       N       E                     dE             d eps       ncg     rms          rms(c)
DAV:   1    -0.992452731042E+03    0.97200E-03   -0.75236E-01 12448   0.998E-01    0.276E-01
RMM:   2    -0.992454949072E+03   -0.22180E-02   -0.19328E-02 12813   0.185E-01    0.161E-01
RMM:   3    -0.992455042953E+03   -0.93880E-04   -0.99178E-04 10929   0.503E-02    0.894E-02
RMM:   4    -0.992454998225E+03    0.44728E-04   -0.12374E-04  7514   0.160E-02    0.577E-02
RMM:   5    -0.992454982758E+03    0.15466E-04   -0.78213E-05  7282   0.116E-02    0.412E-02
RMM:   6    -0.992454985789E+03   -0.30305E-05   -0.26019E-05  7116   0.836E-03    0.170E-02
RMM:   7    -0.992454986867E+03   -0.10783E-05   -0.11393E-05  6868   0.522E-03    0.131E-02
RMM:   8    -0.992454987274E+03   -0.40630E-06   -0.63030E-06  6164   0.416E-03
   8 F= -.99245499E+03 E0= -.99245495E+03  d E =-.128318E-02  mag=   116.0000
       N       E                     dE             d eps       ncg     rms          rms(c)
DAV:   1    -0.992437084980E+03    0.17902E-01   -0.65388E+00 12424   0.294E+00    0.815E-01
RMM:   2    -0.992456245858E+03   -0.19161E-01   -0.16662E-01 12793   0.546E-01    0.475E-01
RMM:   3    -0.992457128807E+03   -0.88295E-03   -0.87987E-03 13370   0.148E-01    0.264E-01
RMM:   4    -0.992456741261E+03    0.38755E-03   -0.11757E-03 12777   0.406E-02    0.164E-01
RMM:   5    -0.992456597158E+03    0.14410E-03   -0.71924E-04 11216   0.277E-02    0.842E-02
RMM:   6    -0.992456606480E+03   -0.93225E-05   -0.98702E-05  7560   0.155E-02    0.331E-02
RMM:   7    -0.992456610055E+03   -0.35752E-05   -0.40120E-05  7338   0.875E-03    0.225E-02
RMM:   8    -0.992456610715E+03   -0.65957E-06   -0.23781E-05  7189   0.741E-03
   9 F= -.99245661E+03 E0= -.99245658E+03  d E =-.290662E-02  mag=   116.0000
       N       E                     dE             d eps       ncg     rms          rms(c)
DAV:   1    -0.992455638888E+03    0.97117E-03   -0.72503E-01 12528   0.974E-01    0.252E-01
RMM:   2    -0.992457671264E+03   -0.20324E-02   -0.18791E-02 12752   0.183E-01    0.150E-01
RMM:   3    -0.992457735591E+03   -0.64327E-04   -0.99286E-04 10939   0.494E-02    0.896E-02
RMM:   4    -0.992457695070E+03    0.40521E-04   -0.11715E-04  7494   0.155E-02    0.597E-02
RMM:   5    -0.992457678784E+03    0.16286E-04   -0.80888E-05  7300   0.116E-02    0.389E-02
RMM:   6    -0.992457683199E+03   -0.44157E-05   -0.27953E-05  7145   0.829E-03    0.179E-02
RMM:   7    -0.992457684812E+03   -0.16128E-05   -0.12116E-05  6903   0.542E-03    0.139E-02
RMM:   8    -0.992457685776E+03   -0.96383E-06   -0.68678E-06  6217   0.419E-03
  10 F= -.99245769E+03 E0= -.99245765E+03  d E =-.107506E-02  mag=   116.0000
       N       E                     dE             d eps       ncg     rms          rms(c)
DAV:   1    -0.992441213423E+03    0.16471E-01   -0.65107E+00 12384   0.292E+00    0.758E-01
RMM:   2    -0.992459201272E+03   -0.17988E-01   -0.16640E-01 12755   0.546E-01    0.451E-01
RMM:   3    -0.992459848729E+03   -0.64746E-03   -0.90013E-03 13348   0.147E-01    0.269E-01
RMM:   4    -0.992459476673E+03    0.37206E-03   -0.10945E-03 12756   0.393E-02    0.173E-01
RMM:   5    -0.992459309876E+03    0.16680E-03   -0.74081E-04 11167   0.280E-02    0.881E-02
RMM:   6    -0.992459323988E+03   -0.14112E-04   -0.11096E-04  7594   0.162E-02    0.352E-02
RMM:   7    -0.992459329177E+03   -0.51885E-05   -0.41731E-05  7337   0.929E-03    0.234E-02
RMM:   8    -0.992459330863E+03   -0.16863E-05   -0.23875E-05  7208   0.760E-03
  11 F= -.99245933E+03 E0= -.99245930E+03  d E =-.272015E-02  mag=   116.0000
       N       E                     dE             d eps       ncg     rms          rms(c)
DAV:   1    -0.992458285051E+03    0.10441E-02   -0.39957E-01 12752   0.724E-01    0.188E-01
RMM:   2    -0.992459419567E+03   -0.11345E-02   -0.10478E-02 12753   0.136E-01    0.112E-01
RMM:   3    -0.992459449343E+03   -0.29776E-04   -0.50064E-04  9624   0.369E-02    0.668E-02
RMM:   4    -0.992459432190E+03    0.17153E-04   -0.74244E-05  7283   0.133E-02    0.455E-02
RMM:   5    -0.992459424955E+03    0.72353E-05   -0.49945E-05  7149   0.949E-03    0.302E-02
RMM:   6    -0.992459428315E+03   -0.33607E-05   -0.20350E-05  7072   0.677E-03    0.128E-02
RMM:   7    -0.992459429627E+03   -0.13116E-05   -0.89487E-06  6640   0.473E-03    0.105E-02
RMM:   8    -0.992459430484E+03   -0.85743E-06   -0.50394E-06  5196   0.345E-03
  12 F= -.99245943E+03 E0= -.99245941E+03  d E =-.281977E-02  mag=   116.0000
       N       E                     dE             d eps       ncg     rms          rms(c)
DAV:   1    -0.992456169915E+03    0.32597E-02   -0.16633E+00 12640   0.148E+00    0.391E-01
RMM:   2    -0.992460876859E+03   -0.47069E-02   -0.42498E-02 12780   0.274E-01    0.231E-01
RMM:   3    -0.992461058996E+03   -0.18214E-03   -0.22427E-03 12664   0.735E-02    0.134E-01
RMM:   4    -0.992460965214E+03    0.93782E-04   -0.26666E-04  8805   0.205E-02    0.879E-02
RMM:   5    -0.992460922532E+03    0.42682E-04   -0.16065E-04  7615   0.157E-02    0.564E-02
RMM:   6    -0.992460928396E+03   -0.58641E-05   -0.48509E-05  7270   0.112E-02    0.270E-02
RMM:   7    -0.992460930313E+03   -0.19172E-05   -0.18559E-05  7095   0.700E-03    0.172E-02
RMM:   8    -0.992460930934E+03   -0.62137E-06   -0.10153E-05  6783   0.517E-03
  13 F= -.99246093E+03 E0= -.99246091E+03  d E =-.150045E-02  mag=   116.0000
       N       E                     dE             d eps       ncg     rms          rms(c)
DAV:   1    -0.992445258856E+03    0.15671E-01   -0.59178E+00 12608   0.279E+00    0.738E-01
RMM:   2    -0.992462027627E+03   -0.16769E-01   -0.15136E-01 12789   0.518E-01    0.435E-01
RMM:   3    -0.992462688068E+03   -0.66044E-03   -0.80435E-03 13324   0.139E-01    0.253E-01
RMM:   4    -0.992462356280E+03    0.33179E-03   -0.10014E-03 12556   0.372E-02    0.165E-01
RMM:   5    -0.992462207613E+03    0.14867E-03   -0.64381E-04 10752   0.260E-02    0.841E-02
RMM:   6    -0.992462219684E+03   -0.12071E-04   -0.10462E-04  7553   0.156E-02    0.335E-02
RMM:   7    -0.992462222907E+03   -0.32231E-05   -0.38238E-05  7334   0.919E-03    0.241E-02
RMM:   8    -0.992462223834E+03   -0.92639E-06   -0.22915E-05  7189   0.736E-03
  14 F= -.99246222E+03 E0= -.99246220E+03  d E =-.279335E-02  mag=   116.0000
       N       E                     dE             d eps       ncg     rms          rms(c)
DAV:   1    -0.992455954569E+03    0.62683E-02   -0.27266E+00 12592   0.190E+00    0.527E-01
RMM:   2    -0.992463985231E+03   -0.80307E-02   -0.70297E-02 12845   0.352E-01    0.310E-01
RMM:   3    -0.992464325922E+03   -0.34069E-03   -0.36505E-03 12932   0.938E-02    0.169E-01
RMM:   4    -0.992464160805E+03    0.16512E-03   -0.49761E-04 10830   0.270E-02    0.104E-01
RMM:   5    -0.992464105351E+03    0.55453E-04   -0.31956E-04  8864   0.198E-02    0.522E-02
RMM:   6    -0.992464111539E+03   -0.61878E-05   -0.50367E-05  7321   0.123E-02    0.260E-02
RMM:   7    -0.992464114129E+03   -0.25903E-05   -0.23174E-05  7214   0.674E-03    0.167E-02
RMM:   8    -0.992464115147E+03   -0.10173E-05   -0.12917E-05  6990   0.615E-03
  15 F= -.99246412E+03 E0= -.99246410E+03  d E =-.189131E-02  mag=   116.0000
       N       E                     dE             d eps       ncg     rms          rms(c)
DAV:   1    -0.992456828691E+03    0.72854E-02   -0.26793E+00 12576   0.188E+00    0.522E-01
RMM:   2    -0.992464692726E+03   -0.78640E-02   -0.68851E-02 12834   0.349E-01    0.308E-01
RMM:   3    -0.992465029371E+03   -0.33665E-03   -0.35884E-03 12897   0.930E-02    0.168E-01
RMM:   4    -0.992464865910E+03    0.16346E-03   -0.48465E-04 10731   0.268E-02    0.104E-01
RMM:   5    -0.992464810412E+03    0.55498E-04   -0.31228E-04  8768   0.197E-02    0.531E-02
RMM:   6    -0.992464816885E+03   -0.64732E-05   -0.50593E-05  7326   0.123E-02    0.263E-02
RMM:   7    -0.992464819552E+03   -0.26670E-05   -0.22763E-05  7212   0.675E-03    0.167E-02
RMM:   8    -0.992464820664E+03   -0.11119E-05   -0.12647E-05  6996   0.613E-03
  16 F= -.99246482E+03 E0= -.99246480E+03  d E =-.259683E-02  mag=   116.0000
       N       E                     dE             d eps       ncg     rms          rms(c)
DAV:   1    -0.992459782370E+03    0.50372E-02   -0.22068E+00 12576   0.171E+00    0.479E-01
RMM:   2    -0.992466214902E+03   -0.64325E-02   -0.57492E-02 12890   0.320E-01    0.290E-01
RMM:   3    -0.992466454609E+03   -0.23971E-03   -0.29413E-03 12875   0.828E-02    0.163E-01
RMM:   4    -0.992466314232E+03    0.14038E-03   -0.38000E-04  9875   0.239E-02    0.103E-01
RMM:   5    -0.992466256724E+03    0.57509E-04   -0.27016E-04  8478   0.187E-02    0.552E-02
RMM:   6    -0.992466263383E+03   -0.66591E-05   -0.47996E-05  7300   0.120E-02    0.286E-02
RMM:   7    -0.992466266122E+03   -0.27389E-05   -0.20829E-05  7192   0.661E-03    0.162E-02
RMM:   8    -0.992466267232E+03   -0.11106E-05   -0.11307E-05  6994   0.590E-03
  17 F= -.99246627E+03 E0= -.99246625E+03  d E =-.144657E-02  mag=   116.0000
       N       E                     dE             d eps       ncg     rms          rms(c)
DAV:   1    -0.992462726958E+03    0.35392E-02   -0.13347E+00 12688   0.133E+00    0.373E-01
RMM:   2    -0.992466625974E+03   -0.38990E-02   -0.34853E-02 12895   0.249E-01    0.226E-01
RMM:   3    -0.992466769530E+03   -0.14356E-03   -0.17815E-03 12381   0.643E-02    0.127E-01
RMM:   4    -0.992466683108E+03    0.86422E-04   -0.21056E-04  8258   0.189E-02    0.814E-02
RMM:   5    -0.992466648969E+03    0.34139E-04   -0.15150E-04  7570   0.152E-02    0.498E-02
RMM:   6    -0.992466654739E+03   -0.57697E-05   -0.38588E-05  7233   0.107E-02    0.273E-02
RMM:   7    -0.992466656942E+03   -0.22030E-05   -0.17015E-05  7098   0.626E-03    0.152E-02
RMM:   8    -0.992466657963E+03   -0.10209E-05   -0.93355E-06  6785   0.527E-03
  18 F= -.99246666E+03 E0= -.99246665E+03  d E =-.183730E-02  mag=   116.0000
       N       E                     dE             d eps       ncg     rms          rms(c)
DAV:   1    -0.992459588959E+03    0.70680E-02   -0.28225E+00 12608   0.195E+00    0.552E-01
RMM:   2    -0.992468051602E+03   -0.84626E-02   -0.73770E-02 12848   0.364E-01    0.331E-01
RMM:   3    -0.992468435172E+03   -0.38357E-03   -0.38659E-03 12915   0.966E-02    0.187E-01
RMM:   4    -0.992468275113E+03    0.16006E-03   -0.47191E-04 10631   0.268E-02    0.123E-01
RMM:   5    -0.992468200747E+03    0.74365E-04   -0.33954E-04  9113   0.202E-02    0.582E-02
RMM:   6    -0.992468209317E+03   -0.85693E-05   -0.56358E-05  7345   0.123E-02    0.271E-02
RMM:   7    -0.992468211988E+03   -0.26717E-05   -0.22071E-05  7220   0.713E-03    0.174E-02
RMM:   8    -0.992468213036E+03   -0.10474E-05   -0.12324E-05  6917   0.578E-03
  19 F= -.99246821E+03 E0= -.99246820E+03  d E =-.155507E-02  mag=   116.0000
