<?xml version="1.0" encoding="ISO-8859-1"?>
<modeling>
 <generator>
  <i name="program" type="string">vasp </i>
  <i name="version" type="string">5.4.1  </i>
  <i name="subversion" type="string">05Feb16 (build Jan 25 2017 20:16:33) complex                          parallel </i>
  <i name="platform" type="string">BWXE6 </i>
  <i name="date" type="string">2019 06 24 </i>
  <i name="time" type="string">06:27:15 </i>
 </generator>
 <incar>
  <i type="string" name="SYSTEM"> STF</i>
  <i type="string" name="PREC">normal</i>
  <i type="string" name="ALGO"> Fast</i>
  <i type="int" name="ISPIN">     2</i>
  <i type="int" name="NELM">    40</i>
  <i type="int" name="NELMIN">     8</i>
  <i type="int" name="IBRION">     2</i>
  <i name="EDIFF">      0.00010000</i>
  <i name="EDIFFG">     -0.03000000</i>
  <i type="int" name="NSW">    30</i>
  <i type="int" name="ISIF">     3</i>
  <i name="ENCUT">    520.00000000</i>
  <i type="int" name="NBANDS">   768</i>
  <v name="MAGMOM">      0.60000000      0.60000000      0.60000000      0.60000000      0.60000000      0.60000000      0.60000000      0.60000000      0.60000000      0.60000000      0.60000000      0.60000000      0.60000000      0.60000000      0.60000000      0.60000000      0.60000000      0.60000000      0.60000000      0.60000000
      0.60000000      0.60000000      0.60000000      0.60000000      0.60000000      0.60000000      0.60000000      0.60000000      0.60000000      0.60000000      0.60000000      0.60000000      0.60000000      0.60000000      0.60000000      0.60000000      0.60000000      0.60000000      0.60000000      0.60000000
      0.60000000      0.60000000      0.60000000      0.60000000      0.60000000      0.60000000      0.60000000      0.60000000      0.60000000      0.60000000      0.60000000      0.60000000      0.60000000      0.60000000      0.60000000      0.60000000      5.00000000      5.00000000      5.00000000      5.00000000
      5.00000000      5.00000000      5.00000000      5.00000000      0.60000000      0.60000000      0.60000000      0.60000000      0.60000000      0.60000000      0.60000000      0.60000000      0.60000000      0.60000000      0.60000000      0.60000000      0.60000000      0.60000000      0.60000000      0.60000000
      0.60000000      0.60000000      0.60000000      0.60000000      0.60000000      0.60000000      0.60000000      0.60000000      0.60000000      0.60000000      0.60000000      0.60000000      0.60000000      0.60000000      0.60000000      0.60000000      0.60000000      0.60000000      0.60000000      0.60000000
      0.60000000      0.60000000      0.60000000      0.60000000      0.60000000      0.60000000      0.60000000      0.60000000      0.60000000      0.60000000      0.60000000      0.60000000      0.60000000      0.60000000      0.60000000      0.60000000      0.60000000      0.60000000      0.60000000      0.60000000
      0.60000000      0.60000000      0.60000000      0.60000000      0.60000000      0.60000000      0.60000000      0.60000000      0.60000000      0.60000000      0.60000000      0.60000000      0.60000000      0.60000000      0.60000000      0.60000000      0.60000000      0.60000000      0.60000000      0.60000000
      0.60000000      0.60000000      0.60000000      0.60000000      0.60000000      0.60000000      0.60000000      0.60000000      0.60000000      0.60000000      0.60000000      0.60000000      0.60000000      0.60000000      0.60000000      0.60000000</v>
  <i type="string" name="LREAL"> Auto</i>
  <i type="int" name="ISMEAR">     0</i>
  <i name="SIGMA">      0.05000000</i>
  <i type="int" name="LMAXMIX">     4</i>
  <v type="int" name="KPOINT_BSE">    -1     0     0     0</v>
  <i type="int" name="NELM">    40</i>
  <i type="logical" name="LDAU"> T  </i>
  <v type="int" name="LDAUTYPE">     2</v>
  <v type="int" name="LDAUL">     0     2     2     0</v>
  <v name="LDAUU">      0.00000000      3.00000000      5.00000000      0.00000000</v>
  <v name="LDAUJ">      0.00000000      0.00000000      0.00000000      0.00000000</v>
  <i type="int" name="LDAUPRINT">     1</i>
 </incar>
 <kpoints>
  <generation param="Monkhorst-Pack">
   <v type="int" name="divisions">       2        2        2 </v>
   <v name="usershift">      0.00000000       0.00000000       0.00000000 </v>
   <v name="genvec1">      0.50000000      -0.00000000       0.00000000 </v>
   <v name="genvec2">     -0.00000000       0.50000000       0.00000000 </v>
   <v name="genvec3">      0.00000000       0.00000000       0.50000000 </v>
   <v name="shift">      0.50000000       0.50000000       0.50000000 </v>
  </generation>
  <varray name="kpointlist" >
   <v>       0.25000000       0.25000000       0.25000000 </v>
   <v>      -0.25000000       0.25000000       0.25000000 </v>
   <v>       0.25000000      -0.25000000       0.25000000 </v>
   <v>      -0.25000000      -0.25000000       0.25000000 </v>
  </varray>
  <varray name="weights" >
   <v>       0.25000000 </v>
   <v>       0.25000000 </v>
   <v>       0.25000000 </v>
   <v>       0.25000000 </v>
  </varray>
 </kpoints>
 <parameters>
  <separator name="general" >
   <i type="string" name="SYSTEM">STF</i>
   <i type="logical" name="LCOMPAT"> F  </i>
  </separator>
  <separator name="electronic" >
   <i type="string" name="PREC">normal</i>
   <i name="ENMAX">    520.00000000</i>
   <i name="ENAUG">    605.39200000</i>
   <i name="EDIFF">      0.00010000</i>
   <i type="int" name="IALGO">    68</i>
   <i type="int" name="IWAVPR">    11</i>
   <i type="int" name="NBANDS">   768</i>
   <i name="NELECT">   1032.00000000</i>
   <i type="int" name="TURBO">     0</i>
   <i type="int" name="IRESTART">     0</i>
   <i type="int" name="NREBOOT">     0</i>
   <i type="int" name="NMIN">     0</i>
   <i name="EREF">      0.00000000</i>
   <separator name="electronic smearing" >
    <i type="int" name="ISMEAR">     0</i>
    <i name="SIGMA">      0.05000000</i>
    <i name="KSPACING">      0.50000000</i>
    <i type="logical" name="KGAMMA"> T  </i>
   </separator>
   <separator name="electronic projectors" >
    <i type="logical" name="LREAL"> T  </i>
    <v name="ROPT">     -0.00050000     -0.00050000     -0.00050000     -0.00050000</v>
    <i type="int" name="LMAXPAW">  -100</i>
    <i type="int" name="LMAXMIX">     4</i>
    <i type="logical" name="NLSPLINE"> F  </i>
   </separator>
   <separator name="electronic startup" >
    <i type="int" name="ISTART">     1</i>
    <i type="int" name="ICHARG">     0</i>
    <i type="int" name="INIWAV">     1</i>
   </separator>
   <separator name="electronic spin" >
    <i type="int" name="ISPIN">     2</i>
    <i type="logical" name="LNONCOLLINEAR"> F  </i>
    <v name="MAGMOM">      0.60000000      0.60000000      0.60000000      0.60000000      0.60000000      0.60000000      0.60000000      0.60000000      0.60000000      0.60000000      0.60000000      0.60000000      0.60000000      0.60000000      0.60000000      0.60000000      0.60000000      0.60000000      0.60000000      0.60000000
      0.60000000      0.60000000      0.60000000      0.60000000      0.60000000      0.60000000      0.60000000      0.60000000      0.60000000      0.60000000      0.60000000      0.60000000      0.60000000      0.60000000      0.60000000      0.60000000      0.60000000      0.60000000      0.60000000      0.60000000
      0.60000000      0.60000000      0.60000000      0.60000000      0.60000000      0.60000000      0.60000000      0.60000000      0.60000000      0.60000000      0.60000000      0.60000000      0.60000000      0.60000000      0.60000000      0.60000000      5.00000000      5.00000000      5.00000000      5.00000000
      5.00000000      5.00000000      5.00000000      5.00000000      0.60000000      0.60000000      0.60000000      0.60000000      0.60000000      0.60000000      0.60000000      0.60000000      0.60000000      0.60000000      0.60000000      0.60000000      0.60000000      0.60000000      0.60000000      0.60000000
      0.60000000      0.60000000      0.60000000      0.60000000      0.60000000      0.60000000      0.60000000      0.60000000      0.60000000      0.60000000      0.60000000      0.60000000      0.60000000      0.60000000      0.60000000      0.60000000      0.60000000      0.60000000      0.60000000      0.60000000
      0.60000000      0.60000000      0.60000000      0.60000000      0.60000000      0.60000000      0.60000000      0.60000000      0.60000000      0.60000000      0.60000000      0.60000000      0.60000000      0.60000000      0.60000000      0.60000000      0.60000000      0.60000000      0.60000000      0.60000000
      0.60000000      0.60000000      0.60000000      0.60000000      0.60000000      0.60000000      0.60000000      0.60000000      0.60000000      0.60000000      0.60000000      0.60000000      0.60000000      0.60000000      0.60000000      0.60000000      0.60000000      0.60000000      0.60000000      0.60000000
      0.60000000      0.60000000      0.60000000      0.60000000      0.60000000      0.60000000      0.60000000      0.60000000      0.60000000      0.60000000      0.60000000      0.60000000      0.60000000      0.60000000      0.60000000      0.60000000</v>
    <i name="NUPDOWN">     -1.00000000</i>
    <i type="logical" name="LSORBIT"> F  </i>
    <v name="SAXIS">      0.00000000      0.00000000      1.00000000</v>
    <i type="logical" name="LSPIRAL"> F  </i>
    <v name="QSPIRAL">      0.00000000      0.00000000      0.00000000</v>
    <i type="logical" name="LZEROZ"> F  </i>
   </separator>
   <separator name="electronic exchange-correlation" >
    <i type="logical" name="LASPH"> F  </i>
    <i type="logical" name="LMETAGGA"> F  </i>
   </separator>
   <separator name="electronic convergence" >
    <i type="int" name="NELM">    40</i>
    <i type="int" name="NELMDL">     0</i>
    <i type="int" name="NELMIN">     8</i>
    <i name="ENINI">    520.00000000</i>
    <separator name="electronic convergence detail" >
     <i type="logical" name="LDIAG"> T  </i>
     <i type="logical" name="LSUBROT"> F  </i>
     <i name="WEIMIN">      0.00100000</i>
     <i name="EBREAK">      0.00000003</i>
     <i name="DEPER">      0.30000000</i>
     <i type="int" name="NRMM">     4</i>
     <i name="TIME">      0.40000000</i>
    </separator>
   </separator>
   <separator name="electronic mixer" >
    <i name="AMIX">      0.40000000</i>
    <i name="BMIX">      1.00000000</i>
    <i name="AMIN">      0.10000000</i>
    <i name="AMIX_MAG">      1.60000000</i>
    <i name="BMIX_MAG">      1.00000000</i>
    <separator name="electronic mixer details" >
     <i type="int" name="IMIX">     4</i>
     <i type="logical" name="MIXFIRST"> F  </i>
     <i type="int" name="MAXMIX">   -45</i>
     <i name="WC">    100.00000000</i>
     <i type="int" name="INIMIX">     1</i>
     <i type="int" name="MIXPRE">     1</i>
     <i type="int" name="MREMOVE">     5</i>
    </separator>
   </separator>
   <separator name="electronic dipolcorrection" >
    <i type="logical" name="LDIPOL"> F  </i>
    <i type="logical" name="LMONO"> F  </i>
    <i type="int" name="IDIPOL">     0</i>
    <i name="EPSILON">      1.00000000</i>
    <v name="DIPOL">   -100.00000000   -100.00000000   -100.00000000</v>
    <i name="EFIELD">      0.00000000</i>
   </separator>
  </separator>
  <separator name="grids" >
   <i type="int" name="NGX">    64</i>
   <i type="int" name="NGY">    64</i>
   <i type="int" name="NGZ">    90</i>
   <i type="int" name="NGXF">   128</i>
   <i type="int" name="NGYF">   128</i>
   <i type="int" name="NGZF">   180</i>
   <i type="logical" name="ADDGRID"> F  </i>
  </separator>
  <separator name="ionic" >
   <i type="int" name="NSW">    30</i>
   <i type="int" name="IBRION">     2</i>
   <i type="int" name="ISIF">     3</i>
   <i name="PSTRESS">      0.00000000</i>
   <i name="EDIFFG">     -0.03000000</i>
   <i type="int" name="NFREE">     1</i>
   <i name="POTIM">      0.50000000</i>
   <i name="SMASS">     -3.00000000</i>
   <i name="SCALEE">      1.00000000</i>
  </separator>
  <separator name="ionic md" >
   <i name="TEBEG">      0.00010000</i>
   <i name="TEEND">      0.00010000</i>
   <i type="int" name="NBLOCK">     1</i>
   <i type="int" name="KBLOCK">    30</i>
   <i type="int" name="NPACO">   256</i>
   <i name="APACO">     16.00000000</i>
  </separator>
  <separator name="symmetry" >
   <i type="int" name="ISYM">     2</i>
   <i name="SYMPREC">      0.00001000</i>
  </separator>
  <separator name="dos" >
   <i type="logical" name="LORBIT"> F  </i>
   <v name="RWIGS">     -1.00000000     -1.00000000     -1.00000000     -1.00000000</v>
   <i type="int" name="NEDOS">   301</i>
   <i name="EMIN">     10.00000000</i>
   <i name="EMAX">    -10.00000000</i>
   <i name="EFERMI">      0.00000000</i>
  </separator>
  <separator name="writing" >
   <i type="int" name="NWRITE">     2</i>
   <i type="logical" name="LWAVE"> T  </i>
   <i type="logical" name="LCHARG"> T  </i>
   <i type="logical" name="LPARD"> F  </i>
   <i type="logical" name="LVTOT"> F  </i>
   <i type="logical" name="LVHAR"> F  </i>
   <i type="logical" name="LELF"> F  </i>
   <i type="logical" name="LOPTICS"> F  </i>
   <v name="STM">      0.00000000      0.00000000      0.00000000      0.00000000      0.00000000      0.00000000      0.00000000</v>
  </separator>
  <separator name="performance" >
   <i type="int" name="NPAR">     2</i>
   <i type="int" name="NSIM">     4</i>
   <i type="int" name="NBLK">    -1</i>
   <i type="logical" name="LPLANE"> T  </i>
   <i type="logical" name="LSCALAPACK"> T  </i>
   <i type="logical" name="LSCAAWARE"> F  </i>
   <i type="logical" name="LSCALU"> F  </i>
   <i type="logical" name="LASYNC"> F  </i>
   <i type="logical" name="LORBITALREAL"> F  </i>
  </separator>
  <separator name="miscellaneous" >
   <i type="int" name="IDIOT">     3</i>
   <i type="logical" name="LMUSIC"> F  </i>
   <v name="POMASS">     87.62000000     47.88000000     55.84700000     16.00000000</v>
   <v name="DARWINR">      0.00000000      0.00000000      0.00000000      0.00000000</v>
   <v name="DARWINV">      1.00000000      1.00000000      1.00000000      1.00000000</v>
   <i type="logical" name="LCORR"> T  </i>
  </separator>
  <i type="logical" name="GGA_COMPAT"> T  </i>
  <i type="logical" name="LBERRY"> F  </i>
  <i type="int" name="ICORELEVEL">     0</i>
  <i type="logical" name="LDAU"> T  </i>
  <v type="int" name="LDAUTYPE">     2</v>
  <v type="int" name="LDAUL">     0</v>
  <v name="LDAUU">      0.00000000</v>
  <v name="LDAUJ">      0.00000000</v>
  <i type="int" name="LDAUPRINT">     1</i>
  <i type="int" name="I_CONSTRAINED_M">     0</i>
  <separator name="electronic exchange-correlation" >
   <i type="string" name="GGA">--</i>
   <i type="int" name="VOSKOWN">     0</i>
   <i type="logical" name="LHFCALC"> F  </i>
   <i type="string" name="PRECFOCK"></i>
   <i type="logical" name="LSYMGRAD"> F  </i>
   <i type="logical" name="LHFONE"> F  </i>
   <i type="logical" name="LRHFCALC"> F  </i>
   <i type="logical" name="LTHOMAS"> F  </i>
   <i type="logical" name="LMODELHF"> F  </i>
   <i name="ENCUT4O">     -1.00000000</i>
   <i type="int" name="EXXOEP">     0</i>
   <i type="int" name="FOURORBIT">     0</i>
   <i name="AEXX">      0.00000000</i>
   <i name="HFALPHA">      0.00000000</i>
   <i name="MCALPHA">      0.00000000</i>
   <i name="ALDAX">      1.00000000</i>
   <i name="AGGAX">      1.00000000</i>
   <i name="ALDAC">      1.00000000</i>
   <i name="AGGAC">      1.00000000</i>
   <i type="int" name="NKREDX">     1</i>
   <i type="int" name="NKREDY">     1</i>
   <i type="int" name="NKREDZ">     1</i>
   <i type="logical" name="SHIFTRED"> F  </i>
   <i type="logical" name="ODDONLY"> F  </i>
   <i type="logical" name="EVENONLY"> F  </i>
   <i type="int" name="LMAXFOCK">     0</i>
   <i type="int" name="NMAXFOCKAE">     0</i>
   <i type="logical" name="LFOCKAEDFT"> F  </i>
   <i name="HFSCREEN">      0.00000000</i>
   <i name="HFSCREENC">      0.00000000</i>
   <i type="int" name="NBANDSGWLOW">     0</i>
  </separator>
  <separator name="vdW DFT" >
   <i type="logical" name="LUSE_VDW"> F  </i>
   <i name="Zab_VDW">     -0.84910000</i>
   <i name="PARAM1">      0.12340000</i>
   <i name="PARAM2">      1.00000000</i>
   <i name="PARAM3">      0.00000000</i>
  </separator>
  <separator name="model GW" >
   <i type="int" name="MODEL_GW">     0</i>
   <i name="MODEL_EPS0">      7.72327857</i>
   <i name="MODEL_ALPHA">      1.00000000</i>
  </separator>
  <separator name="linear response parameters" >
   <i type="logical" name="LEPSILON"> F  </i>
   <i type="logical" name="LRPA"> F  </i>
   <i type="logical" name="LNABLA"> F  </i>
   <i type="logical" name="LVEL"> F  </i>
   <i type="int" name="KINTER">     0</i>
   <i name="CSHIFT">      0.10000000</i>
   <i name="OMEGAMAX">     -1.00000000</i>
   <i name="DEG_THRESHOLD">      0.00200000</i>
  </separator>
  <separator name="orbital magnetization" >
   <i type="logical" name="NUCIND"> F  </i>
   <v name="MAGPOS">      0.00000000      0.00000000      0.00000000</v>
   <i type="logical" name="LNICSALL"> T  </i>
   <i type="logical" name="ORBITALMAG"> F  </i>
   <i type="logical" name="LMAGBLOCH"> F  </i>
   <i type="logical" name="LCHIMAG"> F  </i>
   <i type="logical" name="LGAUGE"> T  </i>
   <i type="int" name="MAGATOM">     0</i>
   <v name="MAGDIPOL">      0.00000000      0.00000000      0.00000000</v>
   <v name="AVECCONST">      0.00000000      0.00000000      0.00000000</v>
  </separator>
  <separator name="response functions" >
   <i type="logical" name="LADDER"> F  </i>
   <i type="logical" name="LFXC"> F  </i>
   <i type="logical" name="LHARTREE"> T  </i>
   <i type="int" name="IBSE">     0</i>
   <v type="int" name="KPOINT">    -1     0     0     0</v>
   <i type="logical" name="LTCTE"> F  </i>
   <i type="logical" name="LTETE"> F  </i>
   <i type="logical" name="LTRIPLET"> F  </i>
   <i type="logical" name="LFXCEPS"> F  </i>
   <i type="logical" name="LFXHEG"> F  </i>
   <i type="int" name="NATURALO">     0</i>
   <i type="logical" name="L2ORDER"> F  </i>
   <i type="logical" name="LUSEW"> F  </i>
   <i name="ENCUTGW">     -2.00000000</i>
   <i name="ENCUTGWSOFT">     -2.00000000</i>
   <i name="ENCUTLF">     -1.00000000</i>
   <i type="int" name="LMAXMP2">    -1</i>
   <i name="SCISSOR">      0.00000000</i>
   <i type="int" name="NOMEGA">     0</i>
   <i type="int" name="NOMEGAR">     0</i>
   <i type="int" name="NBANDSGW">    -1</i>
   <i type="int" name="NBANDSO">    -1</i>
   <i type="int" name="NBANDSV">    -1</i>
   <i type="int" name="NELM">    40</i>
   <i type="int" name="NELMHF">     1</i>
   <i type="int" name="DIM">     3</i>
   <i type="int" name="ANTIRES">     0</i>
   <i name="OMEGAMAX">    -30.00000000</i>
   <i name="OMEGAMIN">    -30.00000000</i>
   <i name="OMEGATL">   -200.00000000</i>
   <i type="int" name="OMEGAGRID">     0</i>
   <i name="CSHIFT">     -0.10000000</i>
   <i type="logical" name="SELFENERGY"> F  </i>
   <i type="logical" name="LSPECTRAL"> F  </i>
   <i type="logical" name="LSPECTRALGW"> F  </i>
   <i type="logical" name="LSINGLES"> F  </i>
   <i type="logical" name="LFERMIGW"> F  </i>
   <i type="logical" name="ODDONLYGW"> F  </i>
   <i type="logical" name="EVENONLYGW"> F  </i>
   <i type="int" name="NKREDLFX">     1</i>
   <i type="int" name="NKREDLFY">     1</i>
   <i type="int" name="NKREDLFZ">     1</i>
   <i type="int" name="MAXMEM">  1800</i>
   <i type="int" name="TELESCOPE">     0</i>
   <i type="int" name="TAUPAR">     1</i>
   <i type="int" name="OMEGAPAR">    -1</i>
   <i name="LAMBDA">      1.00000000</i>
  </separator>
  <separator name="External order field" >
   <i name="OFIELD_KAPPA">      0.00000000</i>
   <v name="OFIELD_K">      0.00000000      0.00000000      0.00000000</v>
   <i name="OFIELD_Q6_NEAR">      0.00000000</i>
   <i name="OFIELD_Q6_FAR">      0.00000000</i>
   <i name="OFIELD_A">      0.00000000</i>
  </separator>
 </parameters>
 <atominfo>
  <atoms>     156 </atoms>
  <types>       4 </types>
  <array name="atoms" >
   <dimension dim="1">ion</dimension>
   <field type="string">element</field>
   <field type="int">atomtype</field>
   <set>
    <rc><c>Sr</c><c>   1</c></rc>
    <rc><c>Sr</c><c>   1</c></rc>
    <rc><c>Sr</c><c>   1</c></rc>
    <rc><c>Sr</c><c>   1</c></rc>
    <rc><c>Sr</c><c>   1</c></rc>
    <rc><c>Sr</c><c>   1</c></rc>
    <rc><c>Sr</c><c>   1</c></rc>
    <rc><c>Sr</c><c>   1</c></rc>
    <rc><c>Sr</c><c>   1</c></rc>
    <rc><c>Sr</c><c>   1</c></rc>
    <rc><c>Sr</c><c>   1</c></rc>
    <rc><c>Sr</c><c>   1</c></rc>
    <rc><c>Sr</c><c>   1</c></rc>
    <rc><c>Sr</c><c>   1</c></rc>
    <rc><c>Sr</c><c>   1</c></rc>
    <rc><c>Sr</c><c>   1</c></rc>
    <rc><c>Sr</c><c>   1</c></rc>
    <rc><c>Sr</c><c>   1</c></rc>
    <rc><c>Sr</c><c>   1</c></rc>
    <rc><c>Sr</c><c>   1</c></rc>
    <rc><c>Sr</c><c>   1</c></rc>
    <rc><c>Sr</c><c>   1</c></rc>
    <rc><c>Sr</c><c>   1</c></rc>
    <rc><c>Sr</c><c>   1</c></rc>
    <rc><c>Sr</c><c>   1</c></rc>
    <rc><c>Sr</c><c>   1</c></rc>
    <rc><c>Sr</c><c>   1</c></rc>
    <rc><c>Sr</c><c>   1</c></rc>
    <rc><c>Sr</c><c>   1</c></rc>
    <rc><c>Sr</c><c>   1</c></rc>
    <rc><c>Sr</c><c>   1</c></rc>
    <rc><c>Sr</c><c>   1</c></rc>
    <rc><c>Ti</c><c>   2</c></rc>
    <rc><c>Ti</c><c>   2</c></rc>
    <rc><c>Ti</c><c>   2</c></rc>
    <rc><c>Ti</c><c>   2</c></rc>
    <rc><c>Ti</c><c>   2</c></rc>
    <rc><c>Ti</c><c>   2</c></rc>
    <rc><c>Ti</c><c>   2</c></rc>
    <rc><c>Ti</c><c>   2</c></rc>
    <rc><c>Ti</c><c>   2</c></rc>
    <rc><c>Ti</c><c>   2</c></rc>
    <rc><c>Ti</c><c>   2</c></rc>
    <rc><c>Ti</c><c>   2</c></rc>
    <rc><c>Ti</c><c>   2</c></rc>
    <rc><c>Ti</c><c>   2</c></rc>
    <rc><c>Ti</c><c>   2</c></rc>
    <rc><c>Ti</c><c>   2</c></rc>
    <rc><c>Ti</c><c>   2</c></rc>
    <rc><c>Ti</c><c>   2</c></rc>
    <rc><c>Ti</c><c>   2</c></rc>
    <rc><c>Ti</c><c>   2</c></rc>
    <rc><c>Ti</c><c>   2</c></rc>
    <rc><c>Ti</c><c>   2</c></rc>
    <rc><c>Ti</c><c>   2</c></rc>
    <rc><c>Ti</c><c>   2</c></rc>
    <rc><c>Fe</c><c>   3</c></rc>
    <rc><c>Fe</c><c>   3</c></rc>
    <rc><c>Fe</c><c>   3</c></rc>
    <rc><c>Fe</c><c>   3</c></rc>
    <rc><c>Fe</c><c>   3</c></rc>
    <rc><c>Fe</c><c>   3</c></rc>
    <rc><c>Fe</c><c>   3</c></rc>
    <rc><c>Fe</c><c>   3</c></rc>
    <rc><c>O </c><c>   4</c></rc>
    <rc><c>O </c><c>   4</c></rc>
    <rc><c>O </c><c>   4</c></rc>
    <rc><c>O </c><c>   4</c></rc>
    <rc><c>O </c><c>   4</c></rc>
    <rc><c>O </c><c>   4</c></rc>
    <rc><c>O </c><c>   4</c></rc>
    <rc><c>O </c><c>   4</c></rc>
    <rc><c>O </c><c>   4</c></rc>
    <rc><c>O </c><c>   4</c></rc>
    <rc><c>O </c><c>   4</c></rc>
    <rc><c>O </c><c>   4</c></rc>
    <rc><c>O </c><c>   4</c></rc>
    <rc><c>O </c><c>   4</c></rc>
    <rc><c>O </c><c>   4</c></rc>
    <rc><c>O </c><c>   4</c></rc>
    <rc><c>O </c><c>   4</c></rc>
    <rc><c>O </c><c>   4</c></rc>
    <rc><c>O </c><c>   4</c></rc>
    <rc><c>O </c><c>   4</c></rc>
    <rc><c>O </c><c>   4</c></rc>
    <rc><c>O </c><c>   4</c></rc>
    <rc><c>O </c><c>   4</c></rc>
    <rc><c>O </c><c>   4</c></rc>
    <rc><c>O </c><c>   4</c></rc>
    <rc><c>O </c><c>   4</c></rc>
    <rc><c>O </c><c>   4</c></rc>
    <rc><c>O </c><c>   4</c></rc>
    <rc><c>O </c><c>   4</c></rc>
    <rc><c>O </c><c>   4</c></rc>
    <rc><c>O </c><c>   4</c></rc>
    <rc><c>O </c><c>   4</c></rc>
    <rc><c>O </c><c>   4</c></rc>
    <rc><c>O </c><c>   4</c></rc>
    <rc><c>O </c><c>   4</c></rc>
    <rc><c>O </c><c>   4</c></rc>
    <rc><c>O </c><c>   4</c></rc>
    <rc><c>O </c><c>   4</c></rc>
    <rc><c>O </c><c>   4</c></rc>
    <rc><c>O </c><c>   4</c></rc>
    <rc><c>O </c><c>   4</c></rc>
    <rc><c>O </c><c>   4</c></rc>
    <rc><c>O </c><c>   4</c></rc>
    <rc><c>O </c><c>   4</c></rc>
    <rc><c>O </c><c>   4</c></rc>
    <rc><c>O </c><c>   4</c></rc>
    <rc><c>O </c><c>   4</c></rc>
    <rc><c>O </c><c>   4</c></rc>
    <rc><c>O </c><c>   4</c></rc>
    <rc><c>O </c><c>   4</c></rc>
    <rc><c>O </c><c>   4</c></rc>
    <rc><c>O </c><c>   4</c></rc>
    <rc><c>O </c><c>   4</c></rc>
    <rc><c>O </c><c>   4</c></rc>
    <rc><c>O </c><c>   4</c></rc>
    <rc><c>O </c><c>   4</c></rc>
    <rc><c>O </c><c>   4</c></rc>
    <rc><c>O </c><c>   4</c></rc>
    <rc><c>O </c><c>   4</c></rc>
    <rc><c>O </c><c>   4</c></rc>
    <rc><c>O </c><c>   4</c></rc>
    <rc><c>O </c><c>   4</c></rc>
    <rc><c>O </c><c>   4</c></rc>
    <rc><c>O </c><c>   4</c></rc>
    <rc><c>O </c><c>   4</c></rc>
    <rc><c>O </c><c>   4</c></rc>
    <rc><c>O </c><c>   4</c></rc>
    <rc><c>O </c><c>   4</c></rc>
    <rc><c>O </c><c>   4</c></rc>
    <rc><c>O </c><c>   4</c></rc>
    <rc><c>O </c><c>   4</c></rc>
    <rc><c>O </c><c>   4</c></rc>
    <rc><c>O </c><c>   4</c></rc>
    <rc><c>O </c><c>   4</c></rc>
    <rc><c>O </c><c>   4</c></rc>
    <rc><c>O </c><c>   4</c></rc>
    <rc><c>O </c><c>   4</c></rc>
    <rc><c>O </c><c>   4</c></rc>
    <rc><c>O </c><c>   4</c></rc>
    <rc><c>O </c><c>   4</c></rc>
    <rc><c>O </c><c>   4</c></rc>
    <rc><c>O </c><c>   4</c></rc>
    <rc><c>O </c><c>   4</c></rc>
    <rc><c>O </c><c>   4</c></rc>
    <rc><c>O </c><c>   4</c></rc>
    <rc><c>O </c><c>   4</c></rc>
    <rc><c>O </c><c>   4</c></rc>
    <rc><c>O </c><c>   4</c></rc>
    <rc><c>O </c><c>   4</c></rc>
    <rc><c>O </c><c>   4</c></rc>
    <rc><c>O </c><c>   4</c></rc>
    <rc><c>O </c><c>   4</c></rc>
   </set>
  </array>
  <array name="atomtypes" >
   <dimension dim="1">type</dimension>
   <field type="int">atomspertype</field>
   <field type="string">element</field>
   <field>mass</field>
   <field>valence</field>
   <field type="string">pseudopotential</field>
   <set>
    <rc><c>  32</c><c>Sr</c><c>     87.62000000</c><c>     10.00000000</c><c>  PAW_PBE Sr_sv 07Sep2000               </c></rc>
    <rc><c>  24</c><c>Ti</c><c>     47.88000000</c><c>      4.00000000</c><c>  PAW_PBE Ti 08Apr2002                  </c></rc>
    <rc><c>   8</c><c>Fe</c><c>     55.84700000</c><c>      8.00000000</c><c>  PAW_PBE Fe 06Sep2000                  </c></rc>
    <rc><c>  92</c><c>O </c><c>     16.00000000</c><c>      6.00000000</c><c>  PAW_PBE O 08Apr2002                   </c></rc>
   </set>
  </array>
 </atominfo>
 <structure name="initialpos" >
  <crystal>
   <varray name="basis" >
    <v>      11.21445445       0.00873273      -0.00228679 </v>
    <v>       0.00872681      11.21880120       0.00150883 </v>
    <v>      -0.00330085       0.00217918      15.96065584 </v>
   </varray>
   <i name="volume">   2008.05242693 </i>
   <varray name="rec_basis" >
    <v>       0.08917069      -0.00006937       0.00001845 </v>
    <v>      -0.00006941       0.08913614      -0.00001218 </v>
    <v>       0.00001278      -0.00000844       0.06265407 </v>
   </varray>
  </crystal>
  <varray name="positions" >
   <v>       0.99771758       0.25124486       0.12599153 </v>
   <v>       0.99623156       0.24316585       0.63235945 </v>
   <v>       0.00079720       0.74674782       0.12859093 </v>
   <v>       0.00246753       0.75395711       0.63266546 </v>
   <v>       0.49890879       0.24795495       0.12594262 </v>
   <v>       0.50154029       0.25528732       0.63186085 </v>
   <v>       0.50246888       0.75532974       0.12679098 </v>
   <v>       0.49536179       0.74524145       0.63100401 </v>
   <v>       0.98993851       0.23792173       0.36871859 </v>
   <v>       0.00043470       0.25068798       0.87450164 </v>
   <v>       0.00148493       0.75645216       0.36702211 </v>
   <v>       0.99963851       0.74829428       0.87332847 </v>
   <v>       0.50452444       0.25146977       0.36635127 </v>
   <v>       0.49716383       0.24962068       0.87484434 </v>
   <v>       0.49813167       0.75103576       0.36579290 </v>
   <v>       0.50077135       0.75299862       0.87652293 </v>
   <v>       0.25809549       0.99661684       0.12728643 </v>
   <v>       0.24808075       0.00072515       0.63246407 </v>
   <v>       0.25111941       0.50314562       0.12493099 </v>
   <v>       0.25576407       0.50124995       0.63104387 </v>
   <v>       0.74052706       0.99783559       0.13158250 </v>
   <v>       0.75181982       0.00294542       0.63098659 </v>
   <v>       0.75309176       0.50396098       0.12723722 </v>
   <v>       0.74649914       0.49692449       0.63264828 </v>
   <v>       0.25270137       0.99694761       0.36704970 </v>
   <v>       0.25568157       0.00073569       0.87369176 </v>
   <v>       0.26126414       0.50491366       0.36872386 </v>
   <v>       0.25084209       0.49976670       0.87372730 </v>
   <v>       0.74508389       0.00458410       0.36569265 </v>
   <v>       0.74331464       0.00046953       0.87112308 </v>
   <v>       0.74263977       0.49415397       0.36771293 </v>
   <v>       0.75106336       0.50191803       0.87552010 </v>
   <v>       0.01436433       0.00744781       0.00067207 </v>
   <v>       0.00180009       0.50202483       0.00041793 </v>
   <v>       0.99787140       0.50239872       0.50926188 </v>
   <v>       0.50039697       0.99830590       0.00212419 </v>
   <v>       0.50770040       0.98602440       0.50102199 </v>
   <v>       0.49886810       0.50235383       0.00041587 </v>
   <v>       0.49580751       0.49635117       0.49966086 </v>
   <v>       0.25207460       0.25582027       0.99882672 </v>
   <v>       0.23461321       0.26048651       0.49757501 </v>
   <v>       0.24660626       0.75138299       0.49901097 </v>
   <v>       0.74794680       0.25047764       0.00011546 </v>
   <v>       0.74881091       0.24814396       0.49922476 </v>
   <v>       0.74642785       0.73164022       0.49835927 </v>
   <v>       0.24938994       0.24991608       0.25007113 </v>
   <v>       0.24969747       0.74988827       0.24772281 </v>
   <v>       0.24950073       0.75003323       0.75263163 </v>
   <v>       0.74982153       0.25053508       0.24815121 </v>
   <v>       0.75018139       0.25096900       0.75164132 </v>
   <v>       0.99695272       0.99687590       0.24980265 </v>
   <v>       0.99821814       0.99825835       0.75022116 </v>
   <v>       0.00050760       0.49953560       0.75481042 </v>
   <v>       0.49766346       0.00199009       0.74929777 </v>
   <v>       0.50196263       0.50225249       0.24741472 </v>
   <v>       0.50069850       0.50125179       0.75226419 </v>
   <v>       0.01696582       0.00840008       0.49964096 </v>
   <v>       0.24881929       0.74849571       0.99998915 </v>
   <v>       0.74210578       0.73732721       0.00099610 </v>
   <v>       0.24942578       0.25045198       0.75046416 </v>
   <v>       0.75288929       0.75261251       0.25003815 </v>
   <v>       0.75222374       0.75290638       0.75336964 </v>
   <v>       0.00087512       0.49908640       0.24338497 </v>
   <v>       0.49858370       0.00084789       0.24934894 </v>
   <v>       0.11249978       0.13398974       0.25124151 </v>
   <v>       0.10940290       0.13469504       0.75002994 </v>
   <v>       0.11762160       0.63030934       0.25963318 </v>
   <v>       0.11317962       0.63585101       0.75077534 </v>
   <v>       0.61625139       0.13680228       0.24814727 </v>
   <v>       0.61407384       0.13837827       0.74689118 </v>
   <v>       0.61831922       0.63421982       0.25134366 </v>
   <v>       0.61585174       0.63793357       0.74752551 </v>
   <v>       0.38371102       0.36731638       0.25111313 </v>
   <v>       0.38827306       0.36652269       0.74917548 </v>
   <v>       0.38209066       0.86507183       0.24977490 </v>
   <v>       0.38519966       0.86390184       0.74548678 </v>
   <v>       0.88499008       0.36566400       0.25947794 </v>
   <v>       0.88824207       0.36205321       0.75021551 </v>
   <v>       0.88703326       0.86648107       0.24923414 </v>
   <v>       0.88813062       0.86503607       0.75014664 </v>
   <v>       0.36242397       0.11727804       0.24379576 </v>
   <v>       0.36279103       0.11382717       0.75350160 </v>
   <v>       0.36813109       0.61650161       0.24952271 </v>
   <v>       0.36457948       0.61480940       0.74975311 </v>
   <v>       0.86406953       0.11517991       0.24998945 </v>
   <v>       0.86117701       0.11363782       0.74863210 </v>
   <v>       0.87066859       0.61187623       0.26476754 </v>
   <v>       0.86491717       0.61126262       0.74895600 </v>
   <v>       0.13095128       0.38256720       0.27100017 </v>
   <v>       0.13607235       0.38791923       0.74438617 </v>
   <v>       0.13370710       0.88495342       0.24993085 </v>
   <v>       0.13650261       0.88639629       0.74912749 </v>
   <v>       0.63418441       0.38464392       0.24941357 </v>
   <v>       0.63785543       0.38750491       0.75000807 </v>
   <v>       0.63236109       0.88568317       0.25523699 </v>
   <v>       0.63308903       0.88965651       0.74084163 </v>
   <v>       0.35756855       0.39272939       0.00048190 </v>
   <v>       0.36092717       0.38418394       0.49959152 </v>
   <v>       0.36009610       0.89138781       0.99963917 </v>
   <v>       0.35545299       0.89493363       0.50345105 </v>
   <v>       0.85980365       0.38809410       0.99880454 </v>
   <v>       0.86419832       0.39340867       0.48732576 </v>
   <v>       0.14606241       0.10541856       0.00215041 </v>
   <v>       0.15609448       0.10471846       0.49842744 </v>
   <v>       0.14291033       0.60267807       0.99822680 </v>
   <v>       0.13949576       0.59804420       0.48877434 </v>
   <v>       0.63837587       0.11286930       0.00047955 </v>
   <v>       0.62771790       0.11593676       0.50378761 </v>
   <v>       0.64132250       0.60324448       0.00055611 </v>
   <v>       0.64493635       0.60321168       0.50013661 </v>
   <v>       0.10539317       0.35405868       0.99967403 </v>
   <v>       0.10002270       0.35689823       0.48632246 </v>
   <v>       0.09348474       0.85427484       0.00035316 </v>
   <v>       0.09980923       0.85108475       0.50019135 </v>
   <v>       0.60802192       0.35788793       0.99984820 </v>
   <v>       0.60979984       0.36057617       0.49976841 </v>
   <v>       0.61933457       0.86654321       0.00125085 </v>
   <v>       0.61323038       0.85812567       0.50342780 </v>
   <v>       0.38909126       0.14281570       0.00152337 </v>
   <v>       0.39422103       0.64071336       0.00087391 </v>
   <v>       0.39199361       0.63945751       0.49941109 </v>
   <v>       0.88473168       0.12809762       0.99945572 </v>
   <v>       0.88124221       0.12911963       0.50077990 </v>
   <v>       0.89439821       0.64133067       0.99929414 </v>
   <v>       0.89772152       0.64033170       0.48883435 </v>
   <v>       0.98950374       0.99387941       0.12219945 </v>
   <v>       0.99342695       0.99578073       0.62243304 </v>
   <v>       0.00219240       0.49628867       0.12480451 </v>
   <v>       0.99834265       0.49904704       0.62344223 </v>
   <v>       0.50037379       0.99895026       0.12360690 </v>
   <v>       0.48323455       0.01792114       0.62033715 </v>
   <v>       0.50057412       0.49892144       0.12511488 </v>
   <v>       0.50082932       0.50125206       0.62413651 </v>
   <v>       0.99160214       0.99522479       0.37733465 </v>
   <v>       0.99102158       0.99409823       0.87809862 </v>
   <v>       0.00141068       0.49615645       0.87463295 </v>
   <v>       0.48669586       0.01472445       0.38264357 </v>
   <v>       0.50197584       0.99875871       0.87295941 </v>
   <v>       0.50141741       0.50094943       0.37508542 </v>
   <v>       0.50115987       0.50080070       0.87521869 </v>
   <v>       0.27206242       0.23307712       0.38060345 </v>
   <v>       0.24734300       0.25214041       0.87723001 </v>
   <v>       0.25539682       0.75354354       0.37601450 </v>
   <v>       0.25084424       0.75240400       0.87353021 </v>
   <v>       0.74471823       0.24571875       0.37535145 </v>
   <v>       0.74973167       0.24944699       0.87420785 </v>
   <v>       0.76311771       0.77565569       0.38424824 </v>
   <v>       0.75795687       0.76405714       0.87923474 </v>
   <v>       0.24139906       0.25981661       0.12738339 </v>
   <v>       0.25636911       0.24411093       0.61749739 </v>
   <v>       0.24438486       0.74710811       0.12625864 </v>
   <v>       0.24573111       0.74114573       0.62325842 </v>
   <v>       0.75545157       0.25438438       0.12528587 </v>
   <v>       0.75521442       0.25884734       0.62376073 </v>
   <v>       0.76231989       0.75727535       0.12243098 </v>
   <v>       0.77444703       0.76662028       0.61308182 </v>
  </varray>
 </structure>
 <calculation>
  <scstep>
   <time name="dav">  601.86  601.90</time>
   <time name="total">  609.01  609.17</time>
   <energy>
    <i name="alphaZ">   5620.05064534 </i>
    <i name="ewald"> -61288.44259961 </i>
    <i name="hartreedc"> -16228.56064694 </i>
    <i name="XCdc">   2962.65478857 </i>
    <i name="pawpsdc"> 112551.50732823 </i>
    <i name="pawaedc">-111450.95714283 </i>
    <i name="eentropy">     -0.00000000 </i>
    <i name="bandstr">  -7069.15558280 </i>
    <i name="atom">  73783.44779670 </i>
    <i name="e_fr_energy">  -1119.45541336 </i>
    <i name="e_wo_entrp">  -1119.45541336 </i>
    <i name="e_0_energy">  -1119.45541336 </i>
   </energy>
  </scstep>
  <scstep>
   <time name="diag">   64.60   64.65</time>
   <time name="diis">   63.66   63.68</time>
   <time name="orth">   33.49   33.49</time>
   <time name="total">  168.96  169.06</time>
   <energy>
    <i name="e_fr_energy">  -1119.45541468 </i>
    <i name="e_wo_entrp">  -1119.45541468 </i>
    <i name="e_0_energy">  -1119.45541468 </i>
   </energy>
  </scstep>
  <scstep>
   <time name="diag">   64.73   64.73</time>
   <time name="diis">   61.59   61.62</time>
   <time name="orth">   33.57   33.57</time>
   <time name="total">  167.11  167.17</time>
   <energy>
    <i name="e_fr_energy">  -1119.45541510 </i>
    <i name="e_wo_entrp">  -1119.45541510 </i>
    <i name="e_0_energy">  -1119.45541510 </i>
   </energy>
  </scstep>
  <scstep>
   <time name="diag">   64.76   64.79</time>
   <time name="diis">   55.34   55.36</time>
   <time name="orth">   33.55   33.56</time>
   <time name="total">  160.85  160.98</time>
   <energy>
    <i name="e_fr_energy">  -1119.45541612 </i>
    <i name="e_wo_entrp">  -1119.45541612 </i>
    <i name="e_0_energy">  -1119.45541612 </i>
   </energy>
  </scstep>
  <scstep>
   <time name="diag">   64.70   64.71</time>
   <time name="diis">   53.52   53.52</time>
   <time name="orth">   33.43   33.43</time>
   <time name="total">  158.89  159.16</time>
   <energy>
    <i name="e_fr_energy">  -1119.45541700 </i>
    <i name="e_wo_entrp">  -1119.45541700 </i>
    <i name="e_0_energy">  -1119.45541700 </i>
   </energy>
  </scstep>
  <scstep>
   <time name="diag">   64.73   64.75</time>
   <time name="diis">   49.71   49.71</time>
   <time name="orth">   33.41   33.41</time>
   <time name="total">  155.07  155.14</time>
   <energy>
    <i name="e_fr_energy">  -1119.45541767 </i>
    <i name="e_wo_entrp">  -1119.45541767 </i>
    <i name="e_0_energy">  -1119.45541767 </i>
   </energy>
  </scstep>
  <scstep>
   <time name="diag">   64.67   64.70</time>
   <time name="diis">   48.14   48.16</time>
   <time name="orth">   33.32   33.32</time>
   <time name="total">  153.29  153.41</time>
   <energy>
    <i name="e_fr_energy">  -1119.45541791 </i>
    <i name="e_wo_entrp">  -1119.45541791 </i>
    <i name="e_0_energy">  -1119.45541791 </i>
   </energy>
  </scstep>
  <scstep>
   <time name="diag">   64.82   64.82</time>
   <time name="diis">   45.99   46.00</time>
   <time name="orth">   33.35   33.35</time>
   <time name="total">  145.22  145.29</time>
   <energy>
    <i name="alphaZ">   5620.05064534 </i>
    <i name="ewald"> -61288.44259961 </i>
    <i name="hartreedc"> -16228.60260610 </i>
    <i name="XCdc">   2962.65576482 </i>
    <i name="pawpsdc"> 112550.52500237 </i>
    <i name="pawaedc">-111449.95205411 </i>
    <i name="eentropy">     -0.00000000 </i>
    <i name="bandstr">  -7069.13736746 </i>
    <i name="atom">  73783.44779670 </i>
    <i name="e_fr_energy">  -1119.45541805 </i>
    <i name="e_wo_entrp">  -1119.45541805 </i>
    <i name="e_0_energy">  -1119.45541805 </i>
   </energy>
  </scstep>
  <structure>
   <crystal>
    <varray name="basis" >
     <v>      11.21445445       0.00873273      -0.00228679 </v>
     <v>       0.00872681      11.21880120       0.00150883 </v>
     <v>      -0.00330085       0.00217918      15.96065584 </v>
    </varray>
    <i name="volume">   2008.05242693 </i>
    <varray name="rec_basis" >
     <v>       0.08917069      -0.00006937       0.00001845 </v>
     <v>      -0.00006941       0.08913614      -0.00001218 </v>
     <v>       0.00001278      -0.00000844       0.06265407 </v>
    </varray>
   </crystal>
   <varray name="positions" >
    <v>       0.99771758       0.25124486       0.12599153 </v>
    <v>       0.99623156       0.24316585       0.63235945 </v>
    <v>       0.00079720       0.74674782       0.12859093 </v>
    <v>       0.00246753       0.75395711       0.63266546 </v>
    <v>       0.49890879       0.24795495       0.12594262 </v>
    <v>       0.50154029       0.25528732       0.63186085 </v>
    <v>       0.50246888       0.75532974       0.12679098 </v>
    <v>       0.49536179       0.74524145       0.63100401 </v>
    <v>       0.98993851       0.23792173       0.36871859 </v>
    <v>       0.00043470       0.25068798       0.87450164 </v>
    <v>       0.00148493       0.75645216       0.36702211 </v>
    <v>       0.99963851       0.74829428       0.87332847 </v>
    <v>       0.50452444       0.25146977       0.36635127 </v>
    <v>       0.49716383       0.24962068       0.87484434 </v>
    <v>       0.49813167       0.75103576       0.36579290 </v>
    <v>       0.50077135       0.75299862       0.87652293 </v>
    <v>       0.25809549       0.99661684       0.12728643 </v>
    <v>       0.24808075       0.00072515       0.63246407 </v>
    <v>       0.25111941       0.50314562       0.12493099 </v>
    <v>       0.25576407       0.50124995       0.63104387 </v>
    <v>       0.74052706       0.99783559       0.13158250 </v>
    <v>       0.75181982       0.00294542       0.63098659 </v>
    <v>       0.75309176       0.50396098       0.12723722 </v>
    <v>       0.74649914       0.49692449       0.63264828 </v>
    <v>       0.25270137       0.99694761       0.36704970 </v>
    <v>       0.25568157       0.00073569       0.87369176 </v>
    <v>       0.26126414       0.50491366       0.36872386 </v>
    <v>       0.25084209       0.49976670       0.87372730 </v>
    <v>       0.74508389       0.00458410       0.36569265 </v>
    <v>       0.74331464       0.00046953       0.87112308 </v>
    <v>       0.74263977       0.49415397       0.36771293 </v>
    <v>       0.75106336       0.50191803       0.87552010 </v>
    <v>       0.01436433       0.00744781       0.00067207 </v>
    <v>       0.00180009       0.50202483       0.00041793 </v>
    <v>       0.99787140       0.50239872       0.50926188 </v>
    <v>       0.50039697       0.99830590       0.00212419 </v>
    <v>       0.50770040       0.98602440       0.50102199 </v>
    <v>       0.49886810       0.50235383       0.00041587 </v>
    <v>       0.49580751       0.49635117       0.49966086 </v>
    <v>       0.25207460       0.25582027       0.99882672 </v>
    <v>       0.23461321       0.26048651       0.49757501 </v>
    <v>       0.24660626       0.75138299       0.49901097 </v>
    <v>       0.74794680       0.25047764       0.00011546 </v>
    <v>       0.74881091       0.24814396       0.49922476 </v>
    <v>       0.74642785       0.73164022       0.49835927 </v>
    <v>       0.24938994       0.24991608       0.25007113 </v>
    <v>       0.24969747       0.74988827       0.24772281 </v>
    <v>       0.24950073       0.75003323       0.75263163 </v>
    <v>       0.74982153       0.25053508       0.24815121 </v>
    <v>       0.75018139       0.25096900       0.75164132 </v>
    <v>       0.99695272       0.99687590       0.24980265 </v>
    <v>       0.99821814       0.99825835       0.75022116 </v>
    <v>       0.00050760       0.49953560       0.75481042 </v>
    <v>       0.49766346       0.00199009       0.74929777 </v>
    <v>       0.50196263       0.50225249       0.24741472 </v>
    <v>       0.50069850       0.50125179       0.75226419 </v>
    <v>       0.01696582       0.00840008       0.49964096 </v>
    <v>       0.24881929       0.74849571       0.99998915 </v>
    <v>       0.74210578       0.73732721       0.00099610 </v>
    <v>       0.24942578       0.25045198       0.75046416 </v>
    <v>       0.75288929       0.75261251       0.25003815 </v>
    <v>       0.75222374       0.75290638       0.75336964 </v>
    <v>       0.00087512       0.49908640       0.24338497 </v>
    <v>       0.49858370       0.00084789       0.24934894 </v>
    <v>       0.11249978       0.13398974       0.25124151 </v>
    <v>       0.10940290       0.13469504       0.75002994 </v>
    <v>       0.11762160       0.63030934       0.25963318 </v>
    <v>       0.11317962       0.63585101       0.75077534 </v>
    <v>       0.61625139       0.13680228       0.24814727 </v>
    <v>       0.61407384       0.13837827       0.74689118 </v>
    <v>       0.61831922       0.63421982       0.25134366 </v>
    <v>       0.61585174       0.63793357       0.74752551 </v>
    <v>       0.38371102       0.36731638       0.25111313 </v>
    <v>       0.38827306       0.36652269       0.74917548 </v>
    <v>       0.38209066       0.86507183       0.24977490 </v>
    <v>       0.38519966       0.86390184       0.74548678 </v>
    <v>       0.88499008       0.36566400       0.25947794 </v>
    <v>       0.88824207       0.36205321       0.75021551 </v>
    <v>       0.88703326       0.86648107       0.24923414 </v>
    <v>       0.88813062       0.86503607       0.75014664 </v>
    <v>       0.36242397       0.11727804       0.24379576 </v>
    <v>       0.36279103       0.11382717       0.75350160 </v>
    <v>       0.36813109       0.61650161       0.24952271 </v>
    <v>       0.36457948       0.61480940       0.74975311 </v>
    <v>       0.86406953       0.11517991       0.24998945 </v>
    <v>       0.86117701       0.11363782       0.74863210 </v>
    <v>       0.87066859       0.61187623       0.26476754 </v>
    <v>       0.86491717       0.61126262       0.74895600 </v>
    <v>       0.13095128       0.38256720       0.27100017 </v>
    <v>       0.13607235       0.38791923       0.74438617 </v>
    <v>       0.13370710       0.88495342       0.24993085 </v>
    <v>       0.13650261       0.88639629       0.74912749 </v>
    <v>       0.63418441       0.38464392       0.24941357 </v>
    <v>       0.63785543       0.38750491       0.75000807 </v>
    <v>       0.63236109       0.88568317       0.25523699 </v>
    <v>       0.63308903       0.88965651       0.74084163 </v>
    <v>       0.35756855       0.39272939       0.00048190 </v>
    <v>       0.36092717       0.38418394       0.49959152 </v>
    <v>       0.36009610       0.89138781       0.99963917 </v>
    <v>       0.35545299       0.89493363       0.50345105 </v>
    <v>       0.85980365       0.38809410       0.99880454 </v>
    <v>       0.86419832       0.39340867       0.48732576 </v>
    <v>       0.14606241       0.10541856       0.00215041 </v>
    <v>       0.15609448       0.10471846       0.49842744 </v>
    <v>       0.14291033       0.60267807       0.99822680 </v>
    <v>       0.13949576       0.59804420       0.48877434 </v>
    <v>       0.63837587       0.11286930       0.00047955 </v>
    <v>       0.62771790       0.11593676       0.50378761 </v>
    <v>       0.64132250       0.60324448       0.00055611 </v>
    <v>       0.64493635       0.60321168       0.50013661 </v>
    <v>       0.10539317       0.35405868       0.99967403 </v>
    <v>       0.10002270       0.35689823       0.48632246 </v>
    <v>       0.09348474       0.85427484       0.00035316 </v>
    <v>       0.09980923       0.85108475       0.50019135 </v>
    <v>       0.60802192       0.35788793       0.99984820 </v>
    <v>       0.60979984       0.36057617       0.49976841 </v>
    <v>       0.61933457       0.86654321       0.00125085 </v>
    <v>       0.61323038       0.85812567       0.50342780 </v>
    <v>       0.38909126       0.14281570       0.00152337 </v>
    <v>       0.39422103       0.64071336       0.00087391 </v>
    <v>       0.39199361       0.63945751       0.49941109 </v>
    <v>       0.88473168       0.12809762       0.99945572 </v>
    <v>       0.88124221       0.12911963       0.50077990 </v>
    <v>       0.89439821       0.64133067       0.99929414 </v>
    <v>       0.89772152       0.64033170       0.48883435 </v>
    <v>       0.98950374       0.99387941       0.12219945 </v>
    <v>       0.99342695       0.99578073       0.62243304 </v>
    <v>       0.00219240       0.49628867       0.12480451 </v>
    <v>       0.99834265       0.49904704       0.62344223 </v>
    <v>       0.50037379       0.99895026       0.12360690 </v>
    <v>       0.48323455       0.01792114       0.62033715 </v>
    <v>       0.50057412       0.49892144       0.12511488 </v>
    <v>       0.50082932       0.50125206       0.62413651 </v>
    <v>       0.99160214       0.99522479       0.37733465 </v>
    <v>       0.99102158       0.99409823       0.87809862 </v>
    <v>       0.00141068       0.49615645       0.87463295 </v>
    <v>       0.48669586       0.01472445       0.38264357 </v>
    <v>       0.50197584       0.99875871       0.87295941 </v>
    <v>       0.50141741       0.50094943       0.37508542 </v>
    <v>       0.50115987       0.50080070       0.87521869 </v>
    <v>       0.27206242       0.23307712       0.38060345 </v>
    <v>       0.24734300       0.25214041       0.87723001 </v>
    <v>       0.25539682       0.75354354       0.37601450 </v>
    <v>       0.25084424       0.75240400       0.87353021 </v>
    <v>       0.74471823       0.24571875       0.37535145 </v>
    <v>       0.74973167       0.24944699       0.87420785 </v>
    <v>       0.76311771       0.77565569       0.38424824 </v>
    <v>       0.75795687       0.76405714       0.87923474 </v>
    <v>       0.24139906       0.25981661       0.12738339 </v>
    <v>       0.25636911       0.24411093       0.61749739 </v>
    <v>       0.24438486       0.74710811       0.12625864 </v>
    <v>       0.24573111       0.74114573       0.62325842 </v>
    <v>       0.75545157       0.25438438       0.12528587 </v>
    <v>       0.75521442       0.25884734       0.62376073 </v>
    <v>       0.76231989       0.75727535       0.12243098 </v>
    <v>       0.77444703       0.76662028       0.61308182 </v>
   </varray>
  </structure>
  <varray name="forces" >
   <v>       0.00952269       0.00315390      -0.00035719 </v>
   <v>       0.00081538      -0.00156083      -0.01834658 </v>
   <v>      -0.00598262      -0.00512360      -0.00427467 </v>
   <v>      -0.01351980       0.01207735      -0.02495102 </v>
   <v>      -0.00726368      -0.01535407      -0.00327549 </v>
   <v>       0.01029246       0.00930824      -0.01687020 </v>
   <v>       0.00936201       0.00809358      -0.00455185 </v>
   <v>       0.01131652       0.01037483      -0.01206592 </v>
   <v>       0.01945258       0.00096916       0.03094795 </v>
   <v>       0.00318144      -0.01225144      -0.01408871 </v>
   <v>      -0.01410860      -0.00856085       0.03981476 </v>
   <v>      -0.00351670       0.01871280       0.01371407 </v>
   <v>       0.00690758       0.00349328       0.00398290 </v>
   <v>      -0.02192566      -0.00807229       0.00653458 </v>
   <v>      -0.00177609       0.00125007       0.01515017 </v>
   <v>       0.01593879       0.01165334       0.00697355 </v>
   <v>       0.01015222      -0.00663471       0.01371361 </v>
   <v>       0.01925530       0.02057639      -0.03551901 </v>
   <v>      -0.00552205       0.01319524      -0.01683228 </v>
   <v>       0.01204231       0.00563472      -0.01063842 </v>
   <v>      -0.01069327      -0.00127496       0.00120290 </v>
   <v>      -0.00184269      -0.00268672      -0.04012598 </v>
   <v>       0.00516836       0.01115538      -0.00418102 </v>
   <v>      -0.00530965       0.00579677      -0.02657157 </v>
   <v>       0.00755437       0.02346208       0.01839431 </v>
   <v>       0.00125977      -0.01135043       0.00637909 </v>
   <v>      -0.01205183       0.00487492       0.03910873 </v>
   <v>       0.00603691       0.01098101       0.01226972 </v>
   <v>      -0.01399623       0.00068994       0.02186574 </v>
   <v>      -0.01291237      -0.02572612      -0.00892827 </v>
   <v>       0.00749780       0.01266862       0.02461563 </v>
   <v>      -0.00944716       0.02959590      -0.00200752 </v>
   <v>       0.02326732      -0.03037003       0.01685800 </v>
   <v>       0.01067522       0.04424747       0.03636514 </v>
   <v>      -0.04521435      -0.00507803      -0.00276834 </v>
   <v>      -0.03766743      -0.03541477      -0.02532723 </v>
   <v>       0.07591552      -0.07930183       0.00028798 </v>
   <v>      -0.01284101       0.03129823      -0.01167355 </v>
   <v>       0.02013561      -0.03786967      -0.01319057 </v>
   <v>       0.01195400      -0.00078403       0.00569182 </v>
   <v>      -0.02491445       0.03291151      -0.02118676 </v>
   <v>      -0.02662006       0.01576848      -0.01894664 </v>
   <v>       0.02667438       0.00276099       0.01291110 </v>
   <v>       0.00654481      -0.00561118       0.01182130 </v>
   <v>       0.00230443       0.03796843       0.01681153 </v>
   <v>      -0.03117798      -0.01612914       0.05640900 </v>
   <v>       0.00044178       0.00222877      -0.00124798 </v>
   <v>       0.01805727       0.00615655       0.02462623 </v>
   <v>       0.00345345       0.01677347       0.04017225 </v>
   <v>       0.01593979      -0.00309979      -0.04011919 </v>
   <v>       0.03180589      -0.00302436      -0.03762892 </v>
   <v>       0.02560713       0.02594638       0.00884187 </v>
   <v>      -0.01449599       0.02235792      -0.04252000 </v>
   <v>       0.00062262      -0.02982876      -0.01520572 </v>
   <v>       0.02466444       0.01533261       0.04357516 </v>
   <v>      -0.00861015      -0.00572569      -0.01712946 </v>
   <v>       0.00546315       0.01333418       0.00854518 </v>
   <v>       0.00382844       0.00671025      -0.01356847 </v>
   <v>       0.00405664      -0.01845155      -0.01956057 </v>
   <v>       0.01039785      -0.01067127      -0.00358149 </v>
   <v>       0.00773674      -0.02878621      -0.00068479 </v>
   <v>       0.00002105      -0.00031189      -0.00110304 </v>
   <v>      -0.00264214      -0.00479617      -0.03553305 </v>
   <v>      -0.02377303       0.00109585       0.01883826 </v>
   <v>       0.01278008      -0.02741046      -0.00845718 </v>
   <v>       0.01160297      -0.01916290      -0.00875532 </v>
   <v>       0.03349616      -0.02718663      -0.00271907 </v>
   <v>       0.02284867      -0.01107289      -0.00318258 </v>
   <v>       0.01100250      -0.01814183      -0.00060909 </v>
   <v>       0.00727106       0.00600033       0.01463415 </v>
   <v>       0.00960235      -0.00716461       0.01211029 </v>
   <v>       0.00334008      -0.01226861      -0.01489182 </v>
   <v>      -0.02668908       0.02426408      -0.00513538 </v>
   <v>      -0.00413631      -0.00506158       0.00555315 </v>
   <v>       0.00535088       0.01932196      -0.00766175 </v>
   <v>      -0.00241754       0.01970928       0.01542323 </v>
   <v>      -0.02057692      -0.00798227      -0.00750975 </v>
   <v>      -0.02510876      -0.00928464       0.01353266 </v>
   <v>      -0.00818887       0.02668506      -0.01918696 </v>
   <v>       0.00656076       0.03037658       0.01700469 </v>
   <v>       0.01680905       0.00824977       0.00319453 </v>
   <v>       0.01332634       0.00231037       0.02641374 </v>
   <v>       0.00378173       0.04494266      -0.02208167 </v>
   <v>       0.01041979       0.00697273       0.00267005 </v>
   <v>       0.01097096       0.02298594      -0.00802408 </v>
   <v>       0.01144861       0.00814022       0.00890728 </v>
   <v>       0.00984379       0.00973361       0.01588523 </v>
   <v>      -0.01076044       0.00623289      -0.00751730 </v>
   <v>      -0.03136586      -0.00738026       0.01073339 </v>
   <v>      -0.01117703      -0.00585037       0.01278674 </v>
   <v>      -0.01024088      -0.00428034      -0.00168330 </v>
   <v>      -0.02499154       0.00989198      -0.00376822 </v>
   <v>       0.00725330      -0.01441139      -0.02110251 </v>
   <v>       0.00504431      -0.01219652       0.01126606 </v>
   <v>       0.01254924      -0.01582851      -0.02002364 </v>
   <v>       0.00323292      -0.00907667       0.00987926 </v>
   <v>       0.00035569       0.00482525       0.00409295 </v>
   <v>       0.03247713       0.00003737       0.01144784 </v>
   <v>       0.03551759       0.02106976      -0.00408262 </v>
   <v>      -0.02273112       0.01814896      -0.01005827 </v>
   <v>      -0.02483787      -0.03059010      -0.00853220 </v>
   <v>       0.02549282      -0.02390687      -0.00424091 </v>
   <v>       0.02908062       0.03223028      -0.00207380 </v>
   <v>      -0.03712278      -0.04013153       0.00974417 </v>
   <v>      -0.02325637      -0.00372867      -0.00775977 </v>
   <v>      -0.01357710       0.05142281      -0.01090514 </v>
   <v>       0.00432553       0.01800137      -0.00663377 </v>
   <v>      -0.01660974      -0.00089044      -0.01349535 </v>
   <v>      -0.00450969      -0.02420258       0.00047599 </v>
   <v>      -0.02148992      -0.03638310       0.00789556 </v>
   <v>      -0.00359243       0.00446151      -0.00580861 </v>
   <v>       0.00718723       0.01197861       0.00946209 </v>
   <v>      -0.00760046       0.01160215      -0.00393326 </v>
   <v>       0.01985314      -0.01853796       0.00241144 </v>
   <v>       0.02286485      -0.04589088      -0.00633866 </v>
   <v>       0.00363168      -0.01561429       0.00187803 </v>
   <v>      -0.02551784       0.02306175      -0.00761788 </v>
   <v>      -0.07568284       0.06414274       0.01376363 </v>
   <v>       0.01271075      -0.00758641      -0.00059282 </v>
   <v>      -0.01002403      -0.01337490       0.00329790 </v>
   <v>      -0.04485496       0.01917544       0.00168489 </v>
   <v>      -0.03968859       0.01449301      -0.00467554 </v>
   <v>      -0.01451124      -0.00488747       0.00562981 </v>
   <v>       0.00642218      -0.00184254      -0.00141920 </v>
   <v>       0.04446664      -0.07420315      -0.02186677 </v>
   <v>       0.00028671       0.00555505       0.00779929 </v>
   <v>       0.00433539      -0.01705999       0.01437565 </v>
   <v>      -0.00979702      -0.01373224      -0.00960655 </v>
   <v>       0.00178798       0.00454854       0.02552882 </v>
   <v>      -0.01055717       0.00319066       0.00105575 </v>
   <v>      -0.00273326       0.00611208      -0.02055107 </v>
   <v>       0.00366882      -0.01037688       0.00056390 </v>
   <v>      -0.01712748      -0.00560739       0.00426326 </v>
   <v>       0.00131316      -0.00581106      -0.01768702 </v>
   <v>       0.00118709       0.00377894      -0.00858369 </v>
   <v>      -0.01534770      -0.00471088       0.02677012 </v>
   <v>       0.00101623      -0.01908893       0.00051809 </v>
   <v>      -0.00785265       0.00738568       0.03439611 </v>
   <v>      -0.02328466      -0.01353149       0.01214606 </v>
   <v>      -0.00164610      -0.00380542      -0.01584767 </v>
   <v>       0.01223221       0.01165253       0.00419235 </v>
   <v>      -0.00566790       0.01275737      -0.01721074 </v>
   <v>      -0.02735735      -0.00968741       0.04868579 </v>
   <v>       0.00264684      -0.02016296      -0.01494239 </v>
   <v>       0.01801428      -0.00194275      -0.00719165 </v>
   <v>      -0.00152938       0.01460056       0.02970821 </v>
   <v>      -0.00713284      -0.00810499      -0.02212990 </v>
   <v>       0.01193487      -0.01701159      -0.01628055 </v>
   <v>      -0.00541157       0.02729175      -0.02568670 </v>
   <v>       0.04166569      -0.00352660       0.04081191 </v>
   <v>       0.01758054       0.00162984      -0.00745184 </v>
   <v>      -0.00315142       0.02395094      -0.01743995 </v>
   <v>      -0.02190432       0.00395260      -0.04917339 </v>
   <v>       0.00937586      -0.01903149       0.01457661 </v>
   <v>       0.00102900      -0.00455127       0.00055390 </v>
   <v>       0.00326598      -0.01235854       0.02254166 </v>
  </varray>
  <varray name="stress" >
   <v>       0.19064043       0.23987330      -0.08328577 </v>
   <v>       0.23987383       0.07128180      -0.00753141 </v>
   <v>      -0.08328562      -0.00753142       0.30811317 </v>
  </varray>
  <energy>
   <i name="e_fr_energy">  -1119.45541805 </i>
   <i name="e_wo_entrp">  -1119.45541805 </i>
   <i name="e_0_energy">     -0.00000000 </i>
  </energy>
  <time name="totalsc"> 1984.59 2059.11</time>
 </calculation>
 <calculation>
  <scstep>
   <time name="dav">  569.50  569.54</time>
   <time name="total">  576.65  576.72</time>
   <energy>
    <i name="alphaZ">   5618.80920470 </i>
    <i name="ewald"> -61285.39867108 </i>
    <i name="hartreedc"> -16226.01734737 </i>
    <i name="XCdc">   2962.35996858 </i>
    <i name="pawpsdc"> 112550.52438066 </i>
    <i name="pawaedc">-111449.95109254 </i>
    <i name="eentropy">     -0.00000000 </i>
    <i name="bandstr">  -7073.22998870 </i>
    <i name="atom">  73783.44779670 </i>
    <i name="e_fr_energy">  -1119.45574904 </i>
    <i name="e_wo_entrp">  -1119.45574904 </i>
    <i name="e_0_energy">  -1119.45574904 </i>
   </energy>
  </scstep>
  <scstep>
   <time name="diag">   64.92   64.94</time>
   <time name="diis">  104.75  104.78</time>
   <time name="orth">   33.47   33.47</time>
   <time name="total">  210.30  210.37</time>
   <energy>
    <i name="e_fr_energy">  -1119.45864436 </i>
    <i name="e_wo_entrp">  -1119.45864436 </i>
    <i name="e_0_energy">  -1119.45864436 </i>
   </energy>
  </scstep>
  <scstep>
   <time name="diag">   64.92   64.93</time>
   <time name="diis">  110.35  110.45</time>
   <time name="orth">   33.47   33.49</time>
   <time name="total">  215.91  216.09</time>
   <energy>
    <i name="e_fr_energy">  -1119.45835778 </i>
    <i name="e_wo_entrp">  -1119.45835778 </i>
    <i name="e_0_energy">  -1119.45835778 </i>
   </energy>
  </scstep>
  <scstep>
   <time name="diag">   64.94   64.94</time>
   <time name="diis">  101.08  101.08</time>
   <time name="orth">   33.47   33.47</time>
   <time name="total">  206.65  206.74</time>
   <energy>
    <i name="e_fr_energy">  -1119.45801667 </i>
    <i name="e_wo_entrp">  -1119.45801667 </i>
    <i name="e_0_energy">  -1119.45801667 </i>
   </energy>
  </scstep>
  <scstep>
   <time name="diag">   64.86   64.91</time>
   <time name="diis">   87.17   87.18</time>
   <time name="orth">   33.56   33.55</time>
   <time name="total">  192.74  192.85</time>
   <energy>
    <i name="e_fr_energy">  -1119.45788189 </i>
    <i name="e_wo_entrp">  -1119.45788189 </i>
    <i name="e_0_energy">  -1119.45788189 </i>
   </energy>
  </scstep>
  <scstep>
   <time name="diag">   64.84   64.84</time>
   <time name="diis">   64.69   64.72</time>
   <time name="orth">   33.47   33.47</time>
   <time name="total">  170.17  170.27</time>
   <energy>
    <i name="e_fr_energy">  -1119.45788128 </i>
    <i name="e_wo_entrp">  -1119.45788128 </i>
    <i name="e_0_energy">  -1119.45788128 </i>
   </energy>
  </scstep>
  <scstep>
   <time name="diag">   64.90   64.90</time>
   <time name="diis">   64.06   64.06</time>
   <time name="orth">   33.37   33.37</time>
   <time name="total">  169.49  169.55</time>
   <energy>
    <i name="e_fr_energy">  -1119.45788019 </i>
    <i name="e_wo_entrp">  -1119.45788019 </i>
    <i name="e_0_energy">  -1119.45788019 </i>
   </energy>
  </scstep>
  <scstep>
   <time name="diag">   64.87   64.90</time>
   <time name="diis">   62.29   62.29</time>
   <time name="orth">   33.37   33.37</time>
   <time name="total">  161.59  161.70</time>
   <energy>
    <i name="alphaZ">   5618.80920470 </i>
    <i name="ewald"> -61285.39867108 </i>
    <i name="hartreedc"> -16229.21504397 </i>
    <i name="XCdc">   2962.56795948 </i>
    <i name="pawpsdc"> 112482.77394444 </i>
    <i name="pawaedc">-111382.17211952 </i>
    <i name="eentropy">     -0.00000000 </i>
    <i name="bandstr">  -7070.27094956 </i>
    <i name="atom">  73783.44779670 </i>
    <i name="e_fr_energy">  -1119.45787881 </i>
    <i name="e_wo_entrp">  -1119.45787881 </i>
    <i name="e_0_energy">  -1119.45787881 </i>
   </energy>
  </scstep>
  <structure>
   <crystal>
    <varray name="basis" >
     <v>      11.21528397       0.00977561      -0.00264910 </v>
     <v>       0.00977044      11.21911196       0.00147598 </v>
     <v>      -0.00381611       0.00213235      15.96256198 </v>
    </varray>
    <i name="volume">   2008.49609352 </i>
    <varray name="rec_basis" >
     <v>       0.08916411      -0.00007765       0.00002133 </v>
     <v>      -0.00007769       0.08913368      -0.00001193 </v>
     <v>       0.00001480      -0.00000825       0.06264659 </v>
    </varray>
   </crystal>
   <varray name="positions" >
    <v>       0.99775854       0.25125839       0.12599046 </v>
    <v>       0.99623506       0.24315914       0.63230400 </v>
    <v>       0.00077148       0.74672581       0.12857801 </v>
    <v>       0.00240931       0.75400910       0.63259003 </v>
    <v>       0.49887760       0.24788896       0.12593272 </v>
    <v>       0.50158452       0.25532733       0.63180986 </v>
    <v>       0.50250912       0.75536451       0.12677722 </v>
    <v>       0.49541043       0.74528604       0.63096754 </v>
    <v>       0.99002221       0.23792581       0.36881214 </v>
    <v>       0.00044841       0.25063529       0.87445906 </v>
    <v>       0.00142430       0.75641537       0.36714245 </v>
    <v>       0.99962333       0.74837476       0.87336991 </v>
    <v>       0.50455415       0.25148477       0.36636331 </v>
    <v>       0.49706954       0.24958604       0.87486408 </v>
    <v>       0.49812404       0.75104114       0.36583869 </v>
    <v>       0.50083988       0.75304867       0.87654401 </v>
    <v>       0.25813920       0.99658827       0.12732789 </v>
    <v>       0.24816348       0.00081359       0.63235671 </v>
    <v>       0.25109559       0.50320239       0.12488011 </v>
    <v>       0.25581585       0.50127415       0.63101172 </v>
    <v>       0.74048107       0.99783015       0.13158613 </v>
    <v>       0.75181187       0.00293389       0.63086531 </v>
    <v>       0.75311396       0.50400894       0.12722458 </v>
    <v>       0.74647626       0.49694945       0.63256796 </v>
    <v>       0.25273381       0.99704846       0.36710529 </v>
    <v>       0.25568703       0.00068688       0.87371105 </v>
    <v>       0.26121231       0.50493464       0.36884206 </v>
    <v>       0.25086803       0.49981389       0.87376439 </v>
    <v>       0.74502370       0.00458710       0.36575873 </v>
    <v>       0.74325918       0.00035895       0.87109610 </v>
    <v>       0.74267200       0.49420841       0.36778734 </v>
    <v>       0.75102262       0.50204533       0.87551401 </v>
    <v>       0.01446454       0.00731713       0.00072305 </v>
    <v>       0.00184590       0.50221505       0.00052783 </v>
    <v>       0.99767691       0.50237704       0.50925349 </v>
    <v>       0.50023503       0.99815375       0.00204762 </v>
    <v>       0.50802725       0.98568313       0.50102293 </v>
    <v>       0.49881275       0.50248847       0.00038056 </v>
    <v>       0.49589425       0.49618827       0.49962102 </v>
    <v>       0.25212603       0.25581686       0.99884393 </v>
    <v>       0.23450590       0.26062813       0.49751095 </v>
    <v>       0.24649167       0.75145090       0.49895368 </v>
    <v>       0.74806155       0.25048941       0.00015450 </v>
    <v>       0.74883909       0.24811980       0.49926050 </v>
    <v>       0.74643765       0.73180348       0.49841007 </v>
    <v>       0.24925592       0.24984680       0.25024162 </v>
    <v>       0.24969936       0.74989786       0.24771904 </v>
    <v>       0.24957841       0.75005963       0.75270607 </v>
    <v>       0.74983637       0.25060717       0.24827263 </v>
    <v>       0.75024994       0.25095564       0.75152007 </v>
    <v>       0.99708952       0.99686281       0.24968894 </v>
    <v>       0.99832822       0.99836983       0.75024789 </v>
    <v>       0.00044513       0.49963182       0.75468188 </v>
    <v>       0.49766623       0.00186183       0.74925182 </v>
    <v>       0.50206872       0.50231832       0.24754644 </v>
    <v>       0.50066146       0.50122720       0.75221242 </v>
    <v>       0.01698929       0.00845739       0.49966679 </v>
    <v>       0.24883572       0.74852456       0.99994814 </v>
    <v>       0.74212327       0.73724787       0.00093698 </v>
    <v>       0.24947054       0.25040606       0.75045334 </v>
    <v>       0.75292267       0.75248870       0.25003610 </v>
    <v>       0.75222383       0.75290504       0.75336630 </v>
    <v>       0.00086374       0.49906581       0.24327757 </v>
    <v>       0.49848144       0.00085267       0.24940586 </v>
    <v>       0.11255484       0.13387183       0.25121597 </v>
    <v>       0.10945287       0.13461260       0.75000349 </v>
    <v>       0.11776578       0.63019232       0.25962499 </v>
    <v>       0.11327794       0.63580332       0.75076573 </v>
    <v>       0.61629878       0.13672423       0.24814544 </v>
    <v>       0.61410511       0.13840404       0.74693541 </v>
    <v>       0.61836056       0.63418897       0.25138028 </v>
    <v>       0.61586614       0.63788081       0.74748050 </v>
    <v>       0.38359612       0.36742081       0.25109758 </v>
    <v>       0.38825529       0.36650094       0.74919227 </v>
    <v>       0.38211361       0.86515490       0.24975173 </v>
    <v>       0.38518921       0.86398659       0.74553339 </v>
    <v>       0.88490158       0.36562974       0.25945523 </v>
    <v>       0.88813410       0.36201337       0.75025640 </v>
    <v>       0.88699792       0.86659586       0.24917613 </v>
    <v>       0.88815875       0.86516666       0.75019803 </v>
    <v>       0.36249626       0.11731346       0.24380543 </v>
    <v>       0.36284838       0.11383705       0.75358144 </v>
    <v>       0.36814719       0.61669487       0.24945595 </v>
    <v>       0.36462428       0.61483935       0.74976119 </v>
    <v>       0.86411664       0.11527872       0.24996519 </v>
    <v>       0.86122624       0.11367278       0.74865903 </v>
    <v>       0.87071092       0.61191804       0.26481555 </v>
    <v>       0.86487085       0.61128947       0.74893327 </v>
    <v>       0.13081638       0.38253556       0.27103260 </v>
    <v>       0.13602430       0.38789411       0.74442482 </v>
    <v>       0.13366306       0.88493505       0.24992576 </v>
    <v>       0.13639506       0.88643892       0.74911608 </v>
    <v>       0.63421564       0.38458194       0.24934980 </v>
    <v>       0.63787718       0.38745244       0.75004213 </v>
    <v>       0.63241511       0.88561507       0.25517648 </v>
    <v>       0.63310298       0.88961747       0.74087150 </v>
    <v>       0.35757007       0.39275014       0.00049427 </v>
    <v>       0.36106689       0.38418398       0.49962615 </v>
    <v>       0.36024882       0.89147830       0.99962684 </v>
    <v>       0.35535514       0.89501176       0.50342063 </v>
    <v>       0.85969689       0.38796264       0.99877875 </v>
    <v>       0.86430806       0.39330579       0.48731297 </v>
    <v>       0.14618741       0.10555706       0.00214414 </v>
    <v>       0.15593493       0.10454601       0.49845688 </v>
    <v>       0.14281029       0.60266212       0.99820333 </v>
    <v>       0.13943717       0.59826537       0.48874135 </v>
    <v>       0.63839441       0.11294670       0.00045950 </v>
    <v>       0.62764644       0.11593300       0.50374681 </v>
    <v>       0.64130318       0.60314042       0.00055755 </v>
    <v>       0.64484403       0.60305530       0.50016047 </v>
    <v>       0.10537770       0.35407788       0.99965646 </v>
    <v>       0.10005359       0.35694971       0.48635106 </v>
    <v>       0.09345200       0.85432476       0.00034127 </v>
    <v>       0.09989470       0.85100497       0.50019866 </v>
    <v>       0.60812043       0.35769051       0.99982908 </v>
    <v>       0.60981551       0.36050902       0.49977409 </v>
    <v>       0.61922471       0.86664247       0.00122780 </v>
    <v>       0.61290460       0.85840174       0.50346933 </v>
    <v>       0.38914596       0.14278303       0.00152159 </v>
    <v>       0.39417795       0.64065588       0.00088387 </v>
    <v>       0.39180059       0.63954012       0.49941614 </v>
    <v>       0.88456089       0.12816008       0.99944156 </v>
    <v>       0.88117981       0.12909866       0.50079691 </v>
    <v>       0.89442584       0.64132273       0.99928985 </v>
    <v>       0.89791304       0.64001248       0.48876832 </v>
    <v>       0.98950496       0.99390330       0.12222302 </v>
    <v>       0.99344567       0.99570735       0.62247650 </v>
    <v>       0.00215029       0.49622966       0.12477548 </v>
    <v>       0.99835035       0.49906658       0.62351939 </v>
    <v>       0.50032837       0.99896401       0.12361008 </v>
    <v>       0.48322275       0.01794744       0.62027503 </v>
    <v>       0.50058994       0.49887681       0.12511659 </v>
    <v>       0.50075566       0.50122800       0.62414939 </v>
    <v>       0.99160779       0.99519981       0.37728120 </v>
    <v>       0.99102667       0.99411448       0.87807268 </v>
    <v>       0.00134469       0.49613623       0.87471386 </v>
    <v>       0.48670030       0.01464236       0.38264514 </v>
    <v>       0.50194207       0.99879047       0.87306337 </v>
    <v>       0.50131730       0.50089132       0.37512212 </v>
    <v>       0.50115279       0.50078435       0.87517079 </v>
    <v>       0.27211500       0.23312718       0.38061613 </v>
    <v>       0.24731856       0.25219529       0.87717798 </v>
    <v>       0.25527921       0.75350195       0.37616165 </v>
    <v>       0.25085568       0.75231729       0.87348506 </v>
    <v>       0.74479573       0.24571034       0.37532972 </v>
    <v>       0.74972507       0.24950976       0.87429764 </v>
    <v>       0.76308703       0.77562087       0.38418134 </v>
    <v>       0.75800826       0.76398396       0.87918554 </v>
    <v>       0.24137566       0.25993400       0.12730573 </v>
    <v>       0.25654840       0.24409560       0.61762078 </v>
    <v>       0.24446048       0.74711507       0.12623613 </v>
    <v>       0.24571746       0.74124874       0.62320569 </v>
    <v>       0.75535728       0.25440148       0.12513723 </v>
    <v>       0.75525483       0.25876546       0.62380480 </v>
    <v>       0.76232433       0.75725578       0.12243266 </v>
    <v>       0.77446115       0.76656711       0.61314996 </v>
   </varray>
  </structure>
  <varray name="forces" >
   <v>       0.00044396       0.00234425      -0.01676769 </v>
   <v>       0.00425030      -0.00272958       0.00536982 </v>
   <v>      -0.00880735      -0.00025786       0.00325320 </v>
   <v>       0.01342281       0.01679510       0.00054516 </v>
   <v>       0.00330550      -0.01190942      -0.01647913 </v>
   <v>       0.00447181      -0.00079521      -0.00272869 </v>
   <v>       0.01208574       0.01201364       0.00246689 </v>
   <v>      -0.01443689      -0.00466250       0.00022963 </v>
   <v>       0.00139053      -0.01025014       0.00862932 </v>
   <v>      -0.00632013       0.00190331      -0.00174145 </v>
   <v>       0.00429089      -0.00283781       0.01705554 </v>
   <v>      -0.00665023       0.00983917      -0.00486771 </v>
   <v>       0.00688941      -0.01177978      -0.00576694 </v>
   <v>       0.00105076      -0.00944945       0.01540665 </v>
   <v>      -0.01988055       0.00260241       0.00171069 </v>
   <v>       0.01808151       0.00660123       0.00182868 </v>
   <v>       0.02291407       0.00482390       0.01142268 </v>
   <v>       0.01671281       0.01052369      -0.02707886 </v>
   <v>       0.00984041      -0.00071342      -0.01250357 </v>
   <v>       0.01004516       0.01382146      -0.00178478 </v>
   <v>      -0.01889297       0.01342011      -0.00404120 </v>
   <v>       0.00846610       0.01369655      -0.00460134 </v>
   <v>      -0.00546879      -0.01421057      -0.01447118 </v>
   <v>      -0.01099503      -0.00181511       0.00248525 </v>
   <v>       0.01080946       0.00406485       0.02154314 </v>
   <v>       0.00351585       0.00601774      -0.00054167 </v>
   <v>      -0.00845114       0.01993974       0.02578442 </v>
   <v>      -0.00339563      -0.00441528       0.00686625 </v>
   <v>      -0.00291342       0.01140516      -0.01173478 </v>
   <v>      -0.01041374       0.00122558       0.00246403 </v>
   <v>       0.01224477       0.00709663       0.00734014 </v>
   <v>      -0.00334437      -0.00425718       0.00043572 </v>
   <v>      -0.00366747       0.07776075      -0.01046125 </v>
   <v>      -0.02880279      -0.04714300      -0.03438166 </v>
   <v>       0.04195271       0.00256443       0.03118869 </v>
   <v>       0.03398624       0.05090976      -0.00598101 </v>
   <v>      -0.10973407       0.10316033      -0.00734409 </v>
   <v>       0.02505911      -0.06456163       0.01175438 </v>
   <v>      -0.02119848       0.01645699       0.02133934 </v>
   <v>       0.00357161       0.01001782      -0.00233578 </v>
   <v>       0.01755828      -0.01823823       0.04087316 </v>
   <v>      -0.00277765       0.01102335       0.01660626 </v>
   <v>      -0.01920500      -0.01970470      -0.02365696 </v>
   <v>      -0.00097349      -0.03226337       0.00810368 </v>
   <v>      -0.01923467      -0.04945119      -0.00849069 </v>
   <v>       0.02619934       0.02421338      -0.03546304 </v>
   <v>       0.00992778       0.00110950       0.00891822 </v>
   <v>      -0.02285699      -0.00003336      -0.02803884 </v>
   <v>       0.00544731      -0.01119830      -0.05717372 </v>
   <v>      -0.02380739       0.00985757       0.06992202 </v>
   <v>      -0.03176116       0.00101357       0.00976955 </v>
   <v>      -0.00603405      -0.00302707       0.01793788 </v>
   <v>      -0.00711089      -0.01058832       0.03803102 </v>
   <v>       0.00076523       0.02413826       0.00906421 </v>
   <v>      -0.01200765      -0.00866251      -0.02002310 </v>
   <v>       0.00331893      -0.03048878       0.00313924 </v>
   <v>      -0.00808048      -0.02034027       0.00206955 </v>
   <v>       0.00738742      -0.00174852      -0.00294333 </v>
   <v>      -0.01161819      -0.00612029      -0.00521979 </v>
   <v>       0.00814986      -0.00057464       0.00931226 </v>
   <v>       0.01217945       0.00422371      -0.02049747 </v>
   <v>       0.01174197       0.00308240       0.01174830 </v>
   <v>      -0.00168583      -0.00533593      -0.01069632 </v>
   <v>       0.00786235       0.00295542      -0.00571292 </v>
   <v>       0.02622826      -0.01306194       0.00120431 </v>
   <v>       0.01598763      -0.00817930      -0.01297832 </v>
   <v>       0.02420101      -0.02100821      -0.00524014 </v>
   <v>       0.01776122      -0.00304210      -0.00500358 </v>
[...]
       <r>   -16.3231     0.0000    32.0000 </r>
       <r>   -16.1705     0.0000    32.0000 </r>
       <r>   -16.0179     0.0000    32.0000 </r>
       <r>   -15.8653     0.0000    32.0000 </r>
       <r>   -15.7127     0.0000    32.0000 </r>
       <r>   -15.5602     0.0000    32.0000 </r>
       <r>   -15.4076     0.0000    32.0000 </r>
       <r>   -15.2550     1.7510    32.2672 </r>
       <r>   -15.1024    15.5138    34.6344 </r>
       <r>   -14.9498    35.4245    40.0397 </r>
       <r>   -14.7972    44.5574    46.8385 </r>
       <r>   -14.6446    39.9745    52.9381 </r>
       <r>   -14.4921    42.0975    59.3616 </r>
       <r>   -14.3395    32.3585    64.2991 </r>
       <r>   -14.1869    57.5522    73.0807 </r>
       <r>   -14.0343    94.9335    87.5663 </r>
       <r>   -13.8817   104.3005   103.4812 </r>
       <r>   -13.7291    75.1178   114.9431 </r>
       <r>   -13.5765    42.3497   121.4051 </r>
       <r>   -13.4240    13.0570   123.3974 </r>
       <r>   -13.2714     3.9489   124.0000 </r>
       <r>   -13.1188     0.0001   124.0000 </r>
       <r>   -12.9662     0.0000   124.0000 </r>
       <r>   -12.8136     0.0231   124.0035 </r>
       <r>   -12.6610    21.0889   127.2214 </r>
       <r>   -12.5084   104.4041   143.1520 </r>
       <r>   -12.3558   150.0394   166.0460 </r>
       <r>   -12.2033   128.5988   185.6685 </r>
       <r>   -12.0507   116.5182   203.4476 </r>
       <r>   -11.8981    84.0170   216.2674 </r>
       <r>   -11.7455    22.5234   219.7042 </r>
       <r>   -11.5929     1.9387   220.0000 </r>
       <r>   -11.4403     0.0000   220.0000 </r>
       <r>   -11.2877     0.0000   220.0000 </r>
       <r>   -11.1352     0.0000   220.0000 </r>
       <r>   -10.9826     0.0000   220.0000 </r>
       <r>   -10.8300     0.0000   220.0000 </r>
       <r>   -10.6774     0.0000   220.0000 </r>
       <r>   -10.5248     0.0000   220.0000 </r>
       <r>   -10.3722     0.0000   220.0000 </r>
       <r>   -10.2196     0.0000   220.0000 </r>
       <r>   -10.0671     0.0000   220.0000 </r>
       <r>    -9.9145     0.0000   220.0000 </r>
       <r>    -9.7619     0.0000   220.0000 </r>
       <r>    -9.6093     0.0000   220.0000 </r>
       <r>    -9.4567     0.0000   220.0000 </r>
       <r>    -9.3041     0.0000   220.0000 </r>
       <r>    -9.1515     0.0000   220.0000 </r>
       <r>    -8.9989     0.0000   220.0000 </r>
       <r>    -8.8464     0.0000   220.0000 </r>
       <r>    -8.6938     0.0000   220.0000 </r>
       <r>    -8.5412     0.0000   220.0000 </r>
       <r>    -8.3886     0.0000   220.0000 </r>
       <r>    -8.2360     0.0000   220.0000 </r>
       <r>    -8.0834     0.0000   220.0000 </r>
       <r>    -7.9308     0.0000   220.0000 </r>
       <r>    -7.7783     0.0000   220.0000 </r>
       <r>    -7.6257     0.0000   220.0000 </r>
       <r>    -7.4731     0.0000   220.0000 </r>
       <r>    -7.3205     0.0000   220.0000 </r>
       <r>    -7.1679     0.0000   220.0000 </r>
       <r>    -7.0153     0.0000   220.0000 </r>
       <r>    -6.8627     0.0000   220.0000 </r>
       <r>    -6.7101     0.0000   220.0000 </r>
       <r>    -6.5576     0.0000   220.0000 </r>
       <r>    -6.4050     0.0000   220.0000 </r>
       <r>    -6.2524     0.0000   220.0000 </r>
       <r>    -6.0998     0.0000   220.0000 </r>
       <r>    -5.9472     0.0000   220.0000 </r>
       <r>    -5.7946     0.0000   220.0000 </r>
       <r>    -5.6420     0.0000   220.0000 </r>
       <r>    -5.4895     0.0000   220.0000 </r>
       <r>    -5.3369     0.0000   220.0000 </r>
       <r>    -5.1843     0.0000   220.0000 </r>
       <r>    -5.0317     0.0000   220.0000 </r>
       <r>    -4.8791     0.0000   220.0000 </r>
       <r>    -4.7265     0.0000   220.0000 </r>
       <r>    -4.5739     0.0000   220.0000 </r>
       <r>    -4.4214     0.0000   220.0000 </r>
       <r>    -4.2688     0.0000   220.0000 </r>
       <r>    -4.1162     0.0000   220.0000 </r>
       <r>    -3.9636     0.0000   220.0000 </r>
       <r>    -3.8110     0.0000   220.0000 </r>
       <r>    -3.6584     0.0000   220.0000 </r>
       <r>    -3.5058     0.0000   220.0000 </r>
       <r>    -3.3532     0.0000   220.0000 </r>
       <r>    -3.2007     0.0000   220.0000 </r>
       <r>    -3.0481     0.0000   220.0000 </r>
       <r>    -2.8955     0.0000   220.0000 </r>
       <r>    -2.7429     0.0000   220.0000 </r>
       <r>    -2.5903     0.0000   220.0000 </r>
       <r>    -2.4377     0.0020   220.0003 </r>
       <r>    -2.2851     5.6770   220.8665 </r>
       <r>    -2.1326    20.5782   224.0065 </r>
       <r>    -1.9800    37.0409   229.6584 </r>
       <r>    -1.8274    36.8281   235.2779 </r>
       <r>    -1.6748    47.7653   242.5662 </r>
       <r>    -1.5222    48.7738   250.0085 </r>
       <r>    -1.3696    53.5722   258.1828 </r>
       <r>    -1.2170    71.1876   269.0451 </r>
       <r>    -1.0645    72.0099   280.0328 </r>
       <r>    -0.9119    78.4137   291.9977 </r>
       <r>    -0.7593    74.4066   303.3511 </r>
       <r>    -0.6067    94.1074   317.7106 </r>
       <r>    -0.4541   107.7730   334.1553 </r>
       <r>    -0.3015    88.8730   347.7162 </r>
       <r>    -0.1489    55.7439   356.2219 </r>
       <r>     0.0037    54.1956   364.4914 </r>
       <r>     0.1562    44.7234   371.3156 </r>
       <r>     0.3088    46.1035   378.3504 </r>
       <r>     0.4614    49.2413   385.8639 </r>
       <r>     0.6140    57.6435   394.6595 </r>
       <r>     0.7666    52.4960   402.6697 </r>
       <r>     0.9192    49.0926   410.1606 </r>
       <r>     1.0718    58.2189   419.0440 </r>
       <r>     1.2243    73.8047   430.3056 </r>
       <r>     1.3769    81.5392   442.7474 </r>
       <r>     1.5295    89.5585   456.4128 </r>
       <r>     1.6821    77.7903   468.2825 </r>
       <r>     1.8347    68.5670   478.7449 </r>
       <r>     1.9873    48.7255   486.1798 </r>
       <r>     2.1399    37.6548   491.9254 </r>
       <r>     2.2925    20.8183   495.1020 </r>
       <r>     2.4450     5.8852   496.0000 </r>
       <r>     2.5976     0.0002   496.0000 </r>
       <r>     2.7502     0.0000   496.0000 </r>
       <r>     2.9028     0.0000   496.0000 </r>
       <r>     3.0554     0.0000   496.0000 </r>
       <r>     3.2080     0.0000   496.0000 </r>
       <r>     3.3606     0.0000   496.0000 </r>
       <r>     3.5131     0.0000   496.0000 </r>
       <r>     3.6657     0.0000   496.0000 </r>
       <r>     3.8183     0.0000   496.0000 </r>
       <r>     3.9709     0.0000   496.0000 </r>
       <r>     4.1235     0.0000   496.0000 </r>
       <r>     4.2761     0.0000   496.0000 </r>
       <r>     4.4287     0.3586   496.0547 </r>
       <r>     4.5812    17.1946   498.6784 </r>
       <r>     4.7338    40.2260   504.8163 </r>
       <r>     4.8864    41.8613   511.2038 </r>
       <r>     5.0390    33.5293   516.3199 </r>
       <r>     5.1916    54.6505   524.6588 </r>
       <r>     5.3442    64.8784   534.5584 </r>
       <r>     5.4968    63.7103   544.2797 </r>
       <r>     5.6494    62.0372   553.7458 </r>
       <r>     5.8019    70.1122   564.4439 </r>
       <r>     5.9545    74.4459   575.8034 </r>
       <r>     6.1071    95.3882   590.3583 </r>
       <r>     6.2597    78.9611   602.4067 </r>
       <r>     6.4123    55.7272   610.9099 </r>
       <r>     6.5649    27.8421   615.1582 </r>
       <r>     6.7175    16.0921   617.6137 </r>
       <r>     6.8700    15.6912   620.0079 </r>
       <r>     7.0226    20.8643   623.1916 </r>
       <r>     7.1752    15.1861   625.5088 </r>
       <r>     7.3278    19.7714   628.5256 </r>
       <r>     7.4804    12.9764   630.5056 </r>
       <r>     7.6330    12.5593   632.4220 </r>
       <r>     7.7856    15.8946   634.8473 </r>
       <r>     7.9381    22.8834   638.3390 </r>
       <r>     8.0907    27.1935   642.4884 </r>
       <r>     8.2433    22.4631   645.9159 </r>
       <r>     8.3959    24.0206   649.5812 </r>
       <r>     8.5485    28.1352   653.8742 </r>
       <r>     8.7011    22.9334   657.3735 </r>
       <r>     8.8537    28.2084   661.6777 </r>
       <r>     9.0063    35.0664   667.0284 </r>
       <r>     9.1588    41.3971   673.3450 </r>
       <r>     9.3114    39.3772   679.3535 </r>
       <r>     9.4640    39.2778   685.3467 </r>
       <r>     9.6166    44.5926   692.1510 </r>
       <r>     9.7692    53.4003   700.2991 </r>
       <r>     9.9218    63.0249   709.9159 </r>
       <r>    10.0744    66.6822   720.0907 </r>
       <r>    10.2269    66.3800   730.2194 </r>
       <r>    10.3795    61.0260   739.5311 </r>
       <r>    10.5321    56.4726   748.1481 </r>
       <r>    10.6847    59.1987   757.1810 </r>
       <r>    10.8373    52.4140   765.1786 </r>
       <r>    10.9899    18.4754   767.9977 </r>
       <r>    11.1425     0.0148   768.0000 </r>
       <r>    11.2951     0.0000   768.0000 </r>
       <r>    11.4476     0.0000   768.0000 </r>
       <r>    11.6002     0.0000   768.0000 </r>
       <r>    11.7528     0.0000   768.0000 </r>
       <r>    11.9054     0.0000   768.0000 </r>
       <r>    12.0580     0.0000   768.0000 </r>
       <r>    12.2106     0.0000   768.0000 </r>
       <r>    12.3632     0.0000   768.0000 </r>
       <r>    12.5157     0.0000   768.0000 </r>
       <r>    12.6683     0.0000   768.0000 </r>
       <r>    12.8209     0.0000   768.0000 </r>
       <r>    12.9735     0.0000   768.0000 </r>
      </set>
     </set>
    </array>
   </total>
  </dos>
 </calculation>
 <structure name="finalpos" >
  <crystal>
   <varray name="basis" >
    <v>      11.21898161       0.01267936      -0.00247217 </v>
    <v>       0.01267662      11.22083460       0.00055813 </v>
    <v>      -0.00356562       0.00082678      15.95499712 </v>
   </varray>
   <i name="volume">   2008.51347643 </i>
   <varray name="rec_basis" >
    <v>       0.08913477      -0.00010070       0.00001993 </v>
    <v>      -0.00010072       0.08912004      -0.00000464 </v>
    <v>       0.00001381      -0.00000313       0.06267629 </v>
   </varray>
  </crystal>
  <varray name="positions" >
   <v>       0.99792710       0.25128515       0.12584576 </v>
   <v>       0.99595224       0.24315099       0.63229015 </v>
   <v>       0.00090489       0.74699509       0.12837396 </v>
   <v>       0.00260976       0.75457577       0.63288785 </v>
   <v>       0.49894503       0.24756733       0.12604694 </v>
   <v>       0.50203933       0.25549445       0.63169638 </v>
   <v>       0.50287572       0.75550734       0.12707925 </v>
   <v>       0.49491844       0.74511769       0.63107472 </v>
   <v>       0.99031326       0.23804806       0.36923414 </v>
   <v>       0.00067334       0.25089535       0.87387898 </v>
   <v>       0.00143117       0.75589440       0.36692645 </v>
   <v>       0.99964788       0.74849008       0.87327909 </v>
   <v>       0.50481016       0.25145513       0.36614127 </v>
   <v>       0.49667269       0.24904985       0.87498552 </v>
   <v>       0.49766655       0.75142715       0.36572033 </v>
   <v>       0.50116377       0.75305580       0.87644633 </v>
   <v>       0.25854589       0.99689993       0.12775579 </v>
   <v>       0.24823065       0.00135934       0.63233156 </v>
   <v>       0.25183842       0.50429300       0.12457037 </v>
   <v>       0.25577193       0.50168038       0.63109879 </v>
   <v>       0.74021980       0.99786302       0.13148382 </v>
   <v>       0.75214572       0.00330375       0.63082260 </v>
   <v>       0.75284612       0.50343262       0.12715911 </v>
   <v>       0.74633569       0.49682716       0.63253784 </v>
   <v>       0.25245914       0.99754486       0.36691794 </v>
   <v>       0.25575551       0.00055286       0.87365796 </v>
   <v>       0.26104184       0.50572984       0.36919703 </v>
   <v>       0.25074489       0.50024104       0.87384968 </v>
   <v>       0.74513692       0.00464324       0.36518471 </v>
   <v>       0.74334784      -0.00000641       0.87082863 </v>
   <v>       0.74339526       0.49436465       0.36806025 </v>
   <v>       0.75092536       0.50225076       0.87513734 </v>
   <v>       0.01488050       0.00811860       0.00066346 </v>
   <v>       0.00157137       0.50224493       0.00038483 </v>
   <v>       0.99764448       0.50206387       0.50927294 </v>
   <v>       0.50035042       0.99818080       0.00190092 </v>
   <v>       0.50776537       0.98558022       0.50087798 </v>
   <v>       0.49892442       0.50217162       0.00037043 </v>
   <v>       0.49564987       0.49634746       0.49969745 </v>
   <v>       0.25205457       0.25612601       0.99884716 </v>
   <v>       0.23531529       0.26047110       0.49801284 </v>
   <v>       0.24573538       0.75233529       0.49894471 </v>
   <v>       0.74793271       0.25048780      -0.00000150 </v>
   <v>       0.74865925       0.24760686       0.49914596 </v>
   <v>       0.74582448       0.73139946       0.49834843 </v>
   <v>       0.24930747       0.25052574       0.25054856 </v>
   <v>       0.24980425       0.75010751       0.24767511 </v>
   <v>       0.24965391       0.75029905       0.75262600 </v>
   <v>       0.75003140       0.25050426       0.24822403 </v>
   <v>       0.75012888       0.25091807       0.75161193 </v>
   <v>       0.99716182       0.99694632       0.24967811 </v>
   <v>       0.99859338       0.99863186       0.75034459 </v>
   <v>       0.00028449       0.49972875       0.75450362 </v>
   <v>       0.49786234       0.00189061       0.74915843 </v>
   <v>       0.50227801       0.50253891       0.24783899 </v>
   <v>       0.50061358       0.50122305       0.75204738 </v>
   <v>       0.01621560       0.00826148       0.49971360 </v>
   <v>       0.24893385       0.74891896       0.99988798 </v>
   <v>       0.74192994       0.73669469       0.00092218 </v>
   <v>       0.24996936       0.25038344       0.75038299 </v>
   <v>       0.75318298       0.75231802       0.25002088 </v>
   <v>       0.75231893       0.75293756       0.75301501 </v>
   <v>       0.00108345       0.49877069       0.24335222 </v>
   <v>       0.49868590       0.00086368       0.24955469 </v>
   <v>       0.11437117       0.13251773       0.25147477 </v>
   <v>       0.11053995       0.13413254       0.74943909 </v>
   <v>       0.11983349       0.62844914       0.25878638 </v>
   <v>       0.11423168       0.63495619       0.75029993 </v>
   <v>       0.61763938       0.13523385       0.24845177 </v>
   <v>       0.61488253       0.13755944       0.74712635 </v>
   <v>       0.62018266       0.63259483       0.25230340 </v>
   <v>       0.61654034       0.63718232       0.74669031 </v>
   <v>       0.38159446       0.36973394       0.25137394 </v>
   <v>       0.38775648       0.36701103       0.74939716 </v>
   <v>       0.38066285       0.86703969       0.25011024 </v>
   <v>       0.38485993       0.86449788       0.74605600 </v>
   <v>       0.88381091       0.36643853       0.25913475 </v>
   <v>       0.88738892       0.36274632       0.74987949 </v>
   <v>       0.88598760       0.86756319       0.24882481 </v>
   <v>       0.88751683       0.86609631       0.75086388 </v>
   <v>       0.36417109       0.11946626       0.24419973 </v>
   <v>       0.36368514       0.11407730       0.75430538 </v>
   <v>       0.37042910       0.61907646       0.24975800 </v>
   <v>       0.36517066       0.61540307       0.74916915 </v>
   <v>       0.86535166       0.11629450       0.24939691 </v>
   <v>       0.86237119       0.11467267       0.74884584 </v>
   <v>       0.87265970       0.61286410       0.26578604 </v>
   <v>       0.86539989       0.61204461       0.74845131 </v>
   <v>       0.12912311       0.38111955       0.27302869 </v>
   <v>       0.13501459       0.38694174       0.74400911 </v>
   <v>       0.13240635       0.88329090       0.24980419 </v>
   <v>       0.13593647       0.88581708       0.74936013 </v>
   <v>       0.63269212       0.38295406       0.25015798 </v>
   <v>       0.63728732       0.38683384       0.74958489 </v>
   <v>       0.63157392       0.88418801       0.25426991 </v>
   <v>       0.63286925       0.88893124       0.74063124 </v>
   <v>       0.35752546       0.39295305       0.00047934 </v>
   <v>       0.36174910       0.38385585       0.50003419 </v>
   <v>       0.36028878       0.89138867       0.99928865 </v>
   <v>       0.35420500       0.89641116       0.50262157 </v>
   <v>       0.85939283       0.38806571       0.99873607 </v>
   <v>       0.86583654       0.39079047       0.48720734 </v>
   <v>       0.14632655       0.10628599       0.00247291 </v>
   <v>       0.15426300       0.10576598       0.49898874 </v>
   <v>       0.14220769       0.60327706       0.99834490 </v>
   <v>       0.13769934       0.60000804       0.48883214 </v>
   <v>       0.63826075       0.11264451       0.00013824 </v>
   <v>       0.62699796       0.11577396       0.50310225 </v>
   <v>       0.64138128       0.60250230       0.00052352 </v>
   <v>       0.64399787       0.60324463       0.50048975 </v>
   <v>       0.10538787       0.35454532       0.99915776 </v>
   <v>       0.10175636       0.35809580       0.48727735 </v>
   <v>       0.09358282       0.85472727       0.00015531 </v>
   <v>       0.09889048       0.85141521       0.50019146 </v>
   <v>       0.60753467       0.35731260       0.99962485 </v>
   <v>       0.61041050       0.36055722       0.49982299 </v>
   <v>       0.61921391       0.86617422       0.00136014 </v>
   <v>       0.61185749       0.85709521       0.50456647 </v>
   <v>       0.38886270       0.14290837       0.00158487 </v>
   <v>       0.39385281       0.64027222       0.00107628 </v>
   <v>       0.39061897       0.63930813       0.49953778 </v>
   <v>       0.88440073       0.12795425       0.99945154 </v>
   <v>       0.87975229       0.12693155       0.50087809 </v>
   <v>       0.89437894       0.64165533       0.99937775 </v>
   <v>       0.89551929       0.63744324       0.48723612 </v>
   <v>       0.99030907       0.99435616       0.12216309 </v>
   <v>       0.99322722       0.99524452       0.62274384 </v>
   <v>       0.00187679       0.49548514       0.12474867 </v>
   <v>       0.99766251       0.49938399       0.62348158 </v>
   <v>       0.49979572       0.99919162       0.12354809 </v>
   <v>       0.48309445       0.01794132       0.62029326 </v>
   <v>       0.50132141       0.49871869       0.12540317 </v>
   <v>       0.50038150       0.50088402       0.62409019 </v>
   <v>       0.99173366       0.99527175       0.37699275 </v>
   <v>       0.99213672       0.99506822       0.87804567 </v>
   <v>       0.00060829       0.49660102       0.87449575 </v>
   <v>       0.48778344       0.01290194       0.38221724 </v>
   <v>       0.50225482       0.99849510       0.87314307 </v>
   <v>       0.50091780       0.50067396       0.37544382 </v>
   <v>       0.50124688       0.50131458       0.87499355 </v>
   <v>       0.27297904       0.23280282       0.38123321 </v>
   <v>       0.24720012       0.25260763       0.87714281 </v>
   <v>       0.25408492       0.75354014       0.37612793 </v>
   <v>       0.25072828       0.75155970       0.87346922 </v>
   <v>       0.74559505       0.24526730       0.37532459 </v>
   <v>       0.74977676       0.24979629       0.87414528 </v>
   <v>       0.76242302       0.77648134       0.38440187 </v>
   <v>       0.75752158       0.76289555       0.87894890 </v>
   <v>       0.24074553       0.26097265       0.12768915 </v>
   <v>       0.25935052       0.24286518       0.61773518 </v>
   <v>       0.24521815       0.74770057       0.12607375 </v>
   <v>       0.24584197       0.74286143       0.62318675 </v>
   <v>       0.75426652       0.25459492       0.12509082 </v>
   <v>       0.75523385       0.25748260       0.62369592 </v>
   <v>       0.76225026       0.75594368       0.12251947 </v>
   <v>       0.77570149       0.76641821       0.61280986 </v>
  </varray>
 </structure>
</modeling>
