       N       E                     dE             d eps       ncg     rms          rms(c)
DAV:   1    -0.108892603472E+04   -0.10889E+04   -0.57572E-05  2160   0.289E-02    0.397E-02
RMM:   2    -0.108892603323E+04    0.14901E-05   -0.47208E-05  1702   0.152E-02    0.712E-02
RMM:   3    -0.108892603435E+04   -0.11203E-05   -0.16023E-05  1590   0.709E-03    0.611E-03
RMM:   4    -0.108892603454E+04   -0.18484E-06   -0.56558E-06  1172   0.379E-03    0.886E-03
RMM:   5    -0.108892603472E+04   -0.18030E-06   -0.40061E-06   900   0.281E-03    0.524E-03
RMM:   6    -0.108892603472E+04   -0.39290E-09   -0.21971E-06   701   0.247E-03    0.189E-03
RMM:   7    -0.108892603477E+04   -0.52562E-07   -0.14946E-06   589   0.210E-03    0.194E-03
RMM:   8    -0.108892603472E+04    0.44631E-07   -0.91309E-07   515   0.209E-03
   1 F= -.10889260E+04 E0= -.10889260E+04  d E =-.108893E+04  mag=    60.0000
       N       E                     dE             d eps       ncg     rms          rms(c)
DAV:   1    -0.108892665112E+04   -0.61636E-03   -0.34271E-01  3200   0.697E-01    0.297E-01
RMM:   2    -0.108892725538E+04   -0.60425E-03   -0.11243E-02  3089   0.145E-01    0.200E-01
RMM:   3    -0.108892720382E+04    0.51558E-04   -0.66584E-04  2826   0.471E-02    0.153E-01
RMM:   4    -0.108892713002E+04    0.73795E-04   -0.16359E-04  1903   0.178E-02    0.103E-01
RMM:   5    -0.108892708781E+04    0.42214E-04   -0.12359E-04  1859   0.139E-02    0.242E-02
RMM:   6    -0.108892708821E+04   -0.39676E-06   -0.33087E-05  1785   0.924E-03    0.213E-02
RMM:   7    -0.108892708836E+04   -0.14949E-06   -0.17543E-05  1731   0.553E-03    0.127E-02
RMM:   8    -0.108892708715E+04    0.12073E-05   -0.91555E-06  1536   0.473E-03
   2 F= -.10889271E+04 E0= -.10889271E+04  d E =-.105242E-02  mag=    60.0000
       N       E                     dE             d eps       ncg     rms          rms(c)
DAV:   1    -0.108892709578E+04   -0.74233E-05   -0.66813E-03  3296   0.978E-02    0.403E-02
RMM:   2    -0.108892710595E+04   -0.10171E-04   -0.19743E-04  1882   0.211E-02    0.323E-02
RMM:   3    -0.108892710733E+04   -0.13822E-05   -0.26303E-05  1619   0.100E-02    0.257E-02
RMM:   4    -0.108892710656E+04    0.76916E-06   -0.78189E-06  1469   0.438E-03    0.161E-02
RMM:   5    -0.108892710518E+04    0.13837E-05   -0.44340E-06  1385   0.336E-03    0.802E-03
RMM:   6    -0.108892710519E+04   -0.13446E-07   -0.71349E-07   661   0.195E-03    0.335E-03
RMM:   7    -0.108892710524E+04   -0.42404E-07   -0.18010E-07   414   0.178E-03    0.151E-03
RMM:   8    -0.108892710530E+04   -0.64349E-07   -0.16246E-07   344   0.178E-03
   3 F= -.10889271E+04 E0= -.10889271E+04  d E =-.107058E-02  mag=    60.0000
       N       E                     dE             d eps       ncg     rms          rms(c)
DAV:   1    -0.108892742162E+04   -0.31639E-03   -0.31863E-01  3176   0.681E-01    0.187E-01
RMM:   2    -0.108892814692E+04   -0.72529E-03   -0.93474E-03  3186   0.124E-01    0.125E-01
RMM:   3    -0.108892811703E+04    0.29882E-04   -0.42575E-04  2383   0.400E-02    0.784E-02
RMM:   4    -0.108892808499E+04    0.32047E-04   -0.12634E-04  1788   0.156E-02    0.375E-02
RMM:   5    -0.108892808351E+04    0.14744E-05   -0.42939E-05  1755   0.925E-03    0.135E-02
RMM:   6    -0.108892808447E+04   -0.95615E-06   -0.14747E-05  1685   0.614E-03    0.109E-02
RMM:   7    -0.108892808492E+04   -0.44997E-06   -0.84108E-06  1487   0.391E-03    0.652E-03
RMM:   8    -0.108892808473E+04    0.18376E-06   -0.44090E-06  1354   0.344E-03
   4 F= -.10889281E+04 E0= -.10889281E+04  d E =-.979434E-03  mag=    60.0000
       N       E                     dE             d eps       ncg     rms          rms(c)
DAV:   1    -0.108892785440E+04    0.23051E-03   -0.25550E-01  3152   0.610E-01    0.167E-01
RMM:   2    -0.108892844302E+04   -0.58862E-03   -0.75640E-03  3182   0.111E-01    0.112E-01
RMM:   3    -0.108892841711E+04    0.25913E-04   -0.34319E-04  2219   0.365E-02    0.703E-02
RMM:   4    -0.108892839271E+04    0.24400E-04   -0.10998E-04  1791   0.144E-02    0.342E-02
RMM:   5    -0.108892839168E+04    0.10332E-05   -0.38504E-05  1763   0.868E-03    0.120E-02
RMM:   6    -0.108892839264E+04   -0.95794E-06   -0.14176E-05  1669   0.583E-03    0.895E-03
RMM:   7    -0.108892839309E+04   -0.45344E-06   -0.80928E-06  1480   0.392E-03    0.559E-03
RMM:   8    -0.108892839301E+04    0.76790E-07   -0.45250E-06  1358   0.334E-03
   5 F= -.10889284E+04 E0= -.10889284E+04  d E =-.128771E-02  mag=    60.0000
       N       E                     dE             d eps       ncg     rms          rms(c)
DAV:   1    -0.108892856550E+04   -0.17241E-03   -0.20008E-01  3216   0.540E-01    0.152E-01
RMM:   2    -0.108892905724E+04   -0.49173E-03   -0.57866E-03  3126   0.100E-01    0.106E-01
RMM:   3    -0.108892905053E+04    0.67080E-05   -0.26076E-04  2046   0.322E-02    0.681E-02
RMM:   4    -0.108892903894E+04    0.11593E-04   -0.76731E-05  1770   0.129E-02    0.370E-02
RMM:   5    -0.108892904058E+04   -0.16459E-05   -0.41394E-05  1754   0.961E-03    0.393E-02
RMM:   6    -0.108892904203E+04   -0.14460E-05   -0.15732E-05  1704   0.655E-03    0.111E-02
RMM:   7    -0.108892904361E+04   -0.15834E-05   -0.80013E-06  1441   0.388E-03    0.679E-03
RMM:   8    -0.108892904549E+04   -0.18808E-05   -0.50807E-06  1298   0.370E-03
   6 F= -.10889290E+04 E0= -.10889290E+04  d E =-.652481E-03  mag=    60.0000
       N       E                     dE             d eps       ncg     rms          rms(c)
DAV:   1    -0.108892727943E+04    0.17642E-02   -0.99968E-01  3168   0.121E+00    0.341E-01
RMM:   2    -0.108892971899E+04   -0.24396E-02   -0.28779E-02  3152   0.224E-01    0.237E-01
RMM:   3    -0.108892972258E+04   -0.35910E-05   -0.15573E-03  3132   0.718E-02    0.150E-01
RMM:   4    -0.108892965249E+04    0.70088E-04   -0.36694E-04  2310   0.235E-02    0.809E-02
RMM:   5    -0.108892964325E+04    0.92366E-05   -0.13816E-04  1850   0.166E-02    0.456E-02
RMM:   6    -0.108892964809E+04   -0.48413E-05   -0.44108E-05  1784   0.117E-02    0.345E-02
RMM:   7    -0.108892965287E+04   -0.47774E-05   -0.25803E-05  1743   0.638E-03    0.127E-02
RMM:   8    -0.108892965786E+04   -0.49887E-05   -0.14163E-05  1743   0.627E-03
   7 F= -.10889297E+04 E0= -.10889297E+04  d E =-.126485E-02  mag=    60.0000
       N       E                     dE             d eps       ncg     rms          rms(c)
DAV:   1    -0.108892962059E+04    0.32281E-04   -0.28158E-01  3184   0.628E-01    0.171E-01
RMM:   2    -0.108893023636E+04   -0.61577E-03   -0.75466E-03  3139   0.113E-01    0.113E-01
RMM:   3    -0.108893022176E+04    0.14601E-04   -0.36355E-04  2339   0.371E-02    0.714E-02
RMM:   4    -0.108893020173E+04    0.20032E-04   -0.10798E-04  1789   0.141E-02    0.394E-02
RMM:   5    -0.108893019892E+04    0.28107E-05   -0.42681E-05  1769   0.958E-03    0.243E-02
RMM:   6    -0.108893019996E+04   -0.10419E-05   -0.16946E-05  1715   0.648E-03    0.159E-02
RMM:   7    -0.108893020030E+04   -0.33282E-06   -0.93052E-06  1492   0.425E-03    0.722E-03
RMM:   8    -0.108893019965E+04    0.64523E-06   -0.55777E-06  1351   0.363E-03
   8 F= -.10889302E+04 E0= -.10889302E+04  d E =-.541789E-03  mag=    60.0000
