<?xml version="1.0" encoding="ISO-8859-1"?>
<modeling>
 <generator>
  <i name="program" type="string">vasp </i>
  <i name="version" type="string">5.4.1  </i>
  <i name="subversion" type="string">05Feb16 (build Jan 25 2017 20:16:33) complex                          parallel </i>
  <i name="platform" type="string">BWXE6 </i>
  <i name="date" type="string">2019 08 12 </i>
  <i name="time" type="string">10:31:54 </i>
 </generator>
 <incar>
  <i type="string" name="SYSTEM"> STF</i>
  <i type="string" name="PREC">normal</i>
  <i type="string" name="ALGO"> Fast</i>
  <i type="int" name="ISPIN">     2</i>
  <i type="int" name="NELM">    40</i>
  <i type="int" name="NELMIN">     8</i>
  <i type="int" name="IBRION">     2</i>
  <i name="EDIFF">      0.00010000</i>
  <i name="EDIFFG">     -0.03000000</i>
  <i type="int" name="NSW">    30</i>
  <i type="int" name="ISIF">     3</i>
  <i name="ENCUT">    520.00000000</i>
  <i type="int" name="NBANDS">   768</i>
  <v name="MAGMOM">      0.60000000      0.60000000      0.60000000      0.60000000      0.60000000      0.60000000      0.60000000      0.60000000      0.60000000      0.60000000      0.60000000      0.60000000      0.60000000      0.60000000      0.60000000      0.60000000      0.60000000      0.60000000      0.60000000      0.60000000
      0.60000000      0.60000000      0.60000000      0.60000000      0.60000000      0.60000000      0.60000000      0.60000000      0.60000000      0.60000000      0.60000000      0.60000000      0.60000000      0.60000000      0.60000000      0.60000000      0.60000000      0.60000000      0.60000000      0.60000000
      0.60000000      0.60000000      0.60000000      0.60000000      0.60000000      0.60000000      0.60000000      0.60000000      0.60000000      0.60000000      0.60000000      0.60000000      5.00000000      5.00000000      5.00000000      5.00000000      5.00000000      5.00000000      5.00000000      5.00000000
      5.00000000      5.00000000      5.00000000      5.00000000      0.60000000      0.60000000      0.60000000      0.60000000      0.60000000      0.60000000      0.60000000      0.60000000      0.60000000      0.60000000      0.60000000      0.60000000      0.60000000      0.60000000      0.60000000      0.60000000
      0.60000000      0.60000000      0.60000000      0.60000000      0.60000000      0.60000000      0.60000000      0.60000000      0.60000000      0.60000000      0.60000000      0.60000000      0.60000000      0.60000000      0.60000000      0.60000000      0.60000000      0.60000000      0.60000000      0.60000000
      0.60000000      0.60000000      0.60000000      0.60000000      0.60000000      0.60000000      0.60000000      0.60000000      0.60000000      0.60000000      0.60000000      0.60000000      0.60000000      0.60000000      0.60000000      0.60000000      0.60000000      0.60000000      0.60000000      0.60000000
      0.60000000      0.60000000      0.60000000      0.60000000      0.60000000      0.60000000      0.60000000      0.60000000      0.60000000      0.60000000      0.60000000      0.60000000      0.60000000      0.60000000      0.60000000      0.60000000      0.60000000      0.60000000      0.60000000      0.60000000
      0.60000000      0.60000000      0.60000000      0.60000000      0.60000000      0.60000000      0.60000000      0.60000000      0.60000000      0.60000000      0.60000000      0.60000000      0.60000000      0.60000000</v>
  <i type="string" name="LREAL"> Auto</i>
  <i type="int" name="ISMEAR">     0</i>
  <i name="SIGMA">      0.05000000</i>
  <i type="int" name="LMAXMIX">     4</i>
  <v type="int" name="KPOINT_BSE">    -1     0     0     0</v>
  <i type="int" name="NELM">    40</i>
  <i type="logical" name="LDAU"> T  </i>
  <v type="int" name="LDAUTYPE">     2</v>
  <v type="int" name="LDAUL">     0     2     2     0</v>
  <v name="LDAUU">      0.00000000      3.00000000      5.00000000      0.00000000</v>
  <v name="LDAUJ">      0.00000000      0.00000000      0.00000000      0.00000000</v>
  <i type="int" name="LDAUPRINT">     1</i>
 </incar>
 <kpoints>
  <generation param="Monkhorst-Pack">
   <v type="int" name="divisions">       2        2        2 </v>
   <v name="usershift">      0.00000000       0.00000000       0.00000000 </v>
   <v name="genvec1">      0.50000000       0.00000000       0.00000000 </v>
   <v name="genvec2">      0.00000000       0.50000000       0.00000000 </v>
   <v name="genvec3">      0.00000000       0.00000000       0.50000000 </v>
   <v name="shift">      0.50000000       0.50000000       0.50000000 </v>
  </generation>
  <varray name="kpointlist" >
   <v>       0.25000000       0.25000000       0.25000000 </v>
  </varray>
  <varray name="weights" >
   <v>       1.00000000 </v>
  </varray>
 </kpoints>
 <parameters>
  <separator name="general" >
   <i type="string" name="SYSTEM">STF</i>
   <i type="logical" name="LCOMPAT"> F  </i>
  </separator>
  <separator name="electronic" >
   <i type="string" name="PREC">normal</i>
   <i name="ENMAX">    520.00000000</i>
   <i name="ENAUG">    605.39200000</i>
   <i name="EDIFF">      0.00010000</i>
   <i type="int" name="IALGO">    68</i>
   <i type="int" name="IWAVPR">    11</i>
   <i type="int" name="NBANDS">   768</i>
   <i name="NELECT">   1036.00000000</i>
   <i type="int" name="TURBO">     0</i>
   <i type="int" name="IRESTART">     0</i>
   <i type="int" name="NREBOOT">     0</i>
   <i type="int" name="NMIN">     0</i>
   <i name="EREF">      0.00000000</i>
   <separator name="electronic smearing" >
    <i type="int" name="ISMEAR">     0</i>
    <i name="SIGMA">      0.05000000</i>
    <i name="KSPACING">      0.50000000</i>
    <i type="logical" name="KGAMMA"> T  </i>
   </separator>
   <separator name="electronic projectors" >
    <i type="logical" name="LREAL"> T  </i>
    <v name="ROPT">     -0.00050000     -0.00050000     -0.00050000     -0.00050000</v>
    <i type="int" name="LMAXPAW">  -100</i>
    <i type="int" name="LMAXMIX">     4</i>
    <i type="logical" name="NLSPLINE"> F  </i>
   </separator>
   <separator name="electronic startup" >
    <i type="int" name="ISTART">     1</i>
    <i type="int" name="ICHARG">     0</i>
    <i type="int" name="INIWAV">     1</i>
   </separator>
   <separator name="electronic spin" >
    <i type="int" name="ISPIN">     2</i>
    <i type="logical" name="LNONCOLLINEAR"> F  </i>
    <v name="MAGMOM">      0.60000000      0.60000000      0.60000000      0.60000000      0.60000000      0.60000000      0.60000000      0.60000000      0.60000000      0.60000000      0.60000000      0.60000000      0.60000000      0.60000000      0.60000000      0.60000000      0.60000000      0.60000000      0.60000000      0.60000000
      0.60000000      0.60000000      0.60000000      0.60000000      0.60000000      0.60000000      0.60000000      0.60000000      0.60000000      0.60000000      0.60000000      0.60000000      0.60000000      0.60000000      0.60000000      0.60000000      0.60000000      0.60000000      0.60000000      0.60000000
      0.60000000      0.60000000      0.60000000      0.60000000      0.60000000      0.60000000      0.60000000      0.60000000      0.60000000      0.60000000      0.60000000      0.60000000      5.00000000      5.00000000      5.00000000      5.00000000      5.00000000      5.00000000      5.00000000      5.00000000
      5.00000000      5.00000000      5.00000000      5.00000000      0.60000000      0.60000000      0.60000000      0.60000000      0.60000000      0.60000000      0.60000000      0.60000000      0.60000000      0.60000000      0.60000000      0.60000000      0.60000000      0.60000000      0.60000000      0.60000000
      0.60000000      0.60000000      0.60000000      0.60000000      0.60000000      0.60000000      0.60000000      0.60000000      0.60000000      0.60000000      0.60000000      0.60000000      0.60000000      0.60000000      0.60000000      0.60000000      0.60000000      0.60000000      0.60000000      0.60000000
      0.60000000      0.60000000      0.60000000      0.60000000      0.60000000      0.60000000      0.60000000      0.60000000      0.60000000      0.60000000      0.60000000      0.60000000      0.60000000      0.60000000      0.60000000      0.60000000      0.60000000      0.60000000      0.60000000      0.60000000
      0.60000000      0.60000000      0.60000000      0.60000000      0.60000000      0.60000000      0.60000000      0.60000000      0.60000000      0.60000000      0.60000000      0.60000000      0.60000000      0.60000000      0.60000000      0.60000000      0.60000000      0.60000000      0.60000000      0.60000000
      0.60000000      0.60000000      0.60000000      0.60000000      0.60000000      0.60000000      0.60000000      0.60000000      0.60000000      0.60000000      0.60000000      0.60000000      0.60000000      0.60000000</v>
    <i name="NUPDOWN">     -1.00000000</i>
    <i type="logical" name="LSORBIT"> F  </i>
    <v name="SAXIS">      0.00000000      0.00000000      1.00000000</v>
    <i type="logical" name="LSPIRAL"> F  </i>
    <v name="QSPIRAL">      0.00000000      0.00000000      0.00000000</v>
    <i type="logical" name="LZEROZ"> F  </i>
   </separator>
   <separator name="electronic exchange-correlation" >
    <i type="logical" name="LASPH"> F  </i>
    <i type="logical" name="LMETAGGA"> F  </i>
   </separator>
   <separator name="electronic convergence" >
    <i type="int" name="NELM">    40</i>
    <i type="int" name="NELMDL">     0</i>
    <i type="int" name="NELMIN">     8</i>
    <i name="ENINI">    520.00000000</i>
    <separator name="electronic convergence detail" >
     <i type="logical" name="LDIAG"> T  </i>
     <i type="logical" name="LSUBROT"> F  </i>
     <i name="WEIMIN">      0.00100000</i>
     <i name="EBREAK">      0.00000003</i>
     <i name="DEPER">      0.30000000</i>
     <i type="int" name="NRMM">     4</i>
     <i name="TIME">      0.40000000</i>
    </separator>
   </separator>
   <separator name="electronic mixer" >
    <i name="AMIX">      0.40000000</i>
    <i name="BMIX">      1.00000000</i>
    <i name="AMIN">      0.10000000</i>
    <i name="AMIX_MAG">      1.60000000</i>
    <i name="BMIX_MAG">      1.00000000</i>
    <separator name="electronic mixer details" >
     <i type="int" name="IMIX">     4</i>
     <i type="logical" name="MIXFIRST"> F  </i>
     <i type="int" name="MAXMIX">   -45</i>
     <i name="WC">    100.00000000</i>
     <i type="int" name="INIMIX">     1</i>
     <i type="int" name="MIXPRE">     1</i>
     <i type="int" name="MREMOVE">     5</i>
    </separator>
   </separator>
   <separator name="electronic dipolcorrection" >
    <i type="logical" name="LDIPOL"> F  </i>
    <i type="logical" name="LMONO"> F  </i>
    <i type="int" name="IDIPOL">     0</i>
    <i name="EPSILON">      1.00000000</i>
    <v name="DIPOL">   -100.00000000   -100.00000000   -100.00000000</v>
    <i name="EFIELD">      0.00000000</i>
   </separator>
  </separator>
  <separator name="grids" >
   <i type="int" name="NGX">    64</i>
   <i type="int" name="NGY">    64</i>
   <i type="int" name="NGZ">    90</i>
   <i type="int" name="NGXF">   128</i>
   <i type="int" name="NGYF">   128</i>
   <i type="int" name="NGZF">   180</i>
   <i type="logical" name="ADDGRID"> F  </i>
  </separator>
  <separator name="ionic" >
   <i type="int" name="NSW">    30</i>
   <i type="int" name="IBRION">     2</i>
   <i type="int" name="ISIF">     3</i>
   <i name="PSTRESS">      0.00000000</i>
   <i name="EDIFFG">     -0.03000000</i>
   <i type="int" name="NFREE">     1</i>
   <i name="POTIM">      0.50000000</i>
   <i name="SMASS">     -3.00000000</i>
   <i name="SCALEE">      1.00000000</i>
  </separator>
  <separator name="ionic md" >
   <i name="TEBEG">      0.00010000</i>
   <i name="TEEND">      0.00010000</i>
   <i type="int" name="NBLOCK">     1</i>
   <i type="int" name="KBLOCK">    30</i>
   <i type="int" name="NPACO">   256</i>
   <i name="APACO">     16.00000000</i>
  </separator>
  <separator name="symmetry" >
   <i type="int" name="ISYM">     2</i>
   <i name="SYMPREC">      0.00001000</i>
  </separator>
  <separator name="dos" >
   <i type="logical" name="LORBIT"> F  </i>
   <v name="RWIGS">     -1.00000000     -1.00000000     -1.00000000     -1.00000000</v>
   <i type="int" name="NEDOS">   301</i>
   <i name="EMIN">     10.00000000</i>
   <i name="EMAX">    -10.00000000</i>
   <i name="EFERMI">      0.00000000</i>
  </separator>
  <separator name="writing" >
   <i type="int" name="NWRITE">     2</i>
   <i type="logical" name="LWAVE"> T  </i>
   <i type="logical" name="LCHARG"> T  </i>
   <i type="logical" name="LPARD"> F  </i>
   <i type="logical" name="LVTOT"> F  </i>
   <i type="logical" name="LVHAR"> F  </i>
   <i type="logical" name="LELF"> F  </i>
   <i type="logical" name="LOPTICS"> F  </i>
   <v name="STM">      0.00000000      0.00000000      0.00000000      0.00000000      0.00000000      0.00000000      0.00000000</v>
  </separator>
  <separator name="performance" >
   <i type="int" name="NPAR">     2</i>
   <i type="int" name="NSIM">     4</i>
   <i type="int" name="NBLK">    -1</i>
   <i type="logical" name="LPLANE"> T  </i>
   <i type="logical" name="LSCALAPACK"> T  </i>
   <i type="logical" name="LSCAAWARE"> F  </i>
   <i type="logical" name="LSCALU"> F  </i>
   <i type="logical" name="LASYNC"> F  </i>
   <i type="logical" name="LORBITALREAL"> F  </i>
  </separator>
  <separator name="miscellaneous" >
   <i type="int" name="IDIOT">     3</i>
   <i type="logical" name="LMUSIC"> F  </i>
   <v name="POMASS">     87.62000000     47.88000000     55.84700000     16.00000000</v>
   <v name="DARWINR">      0.00000000      0.00000000      0.00000000      0.00000000</v>
   <v name="DARWINV">      1.00000000      1.00000000      1.00000000      1.00000000</v>
   <i type="logical" name="LCORR"> T  </i>
  </separator>
  <i type="logical" name="GGA_COMPAT"> T  </i>
  <i type="logical" name="LBERRY"> F  </i>
  <i type="int" name="ICORELEVEL">     0</i>
  <i type="logical" name="LDAU"> T  </i>
  <v type="int" name="LDAUTYPE">     2</v>
  <v type="int" name="LDAUL">     0</v>
  <v name="LDAUU">      0.00000000</v>
  <v name="LDAUJ">      0.00000000</v>
  <i type="int" name="LDAUPRINT">     1</i>
  <i type="int" name="I_CONSTRAINED_M">     0</i>
  <separator name="electronic exchange-correlation" >
   <i type="string" name="GGA">--</i>
   <i type="int" name="VOSKOWN">     0</i>
   <i type="logical" name="LHFCALC"> F  </i>
   <i type="string" name="PRECFOCK"></i>
   <i type="logical" name="LSYMGRAD"> F  </i>
   <i type="logical" name="LHFONE"> F  </i>
   <i type="logical" name="LRHFCALC"> F  </i>
   <i type="logical" name="LTHOMAS"> F  </i>
   <i type="logical" name="LMODELHF"> F  </i>
   <i name="ENCUT4O">     -1.00000000</i>
   <i type="int" name="EXXOEP">     0</i>
   <i type="int" name="FOURORBIT">     0</i>
   <i name="AEXX">      0.00000000</i>
   <i name="HFALPHA">      0.00000000</i>
   <i name="MCALPHA">      0.00000000</i>
   <i name="ALDAX">      1.00000000</i>
   <i name="AGGAX">      1.00000000</i>
   <i name="ALDAC">      1.00000000</i>
   <i name="AGGAC">      1.00000000</i>
   <i type="int" name="NKREDX">     1</i>
   <i type="int" name="NKREDY">     1</i>
   <i type="int" name="NKREDZ">     1</i>
   <i type="logical" name="SHIFTRED"> F  </i>
   <i type="logical" name="ODDONLY"> F  </i>
   <i type="logical" name="EVENONLY"> F  </i>
   <i type="int" name="LMAXFOCK">     0</i>
   <i type="int" name="NMAXFOCKAE">     0</i>
   <i type="logical" name="LFOCKAEDFT"> F  </i>
   <i name="HFSCREEN">      0.00000000</i>
   <i name="HFSCREENC">      0.00000000</i>
   <i type="int" name="NBANDSGWLOW">     0</i>
  </separator>
  <separator name="vdW DFT" >
   <i type="logical" name="LUSE_VDW"> F  </i>
   <i name="Zab_VDW">     -0.84910000</i>
   <i name="PARAM1">      0.12340000</i>
   <i name="PARAM2">      1.00000000</i>
   <i name="PARAM3">      0.00000000</i>
  </separator>
  <separator name="model GW" >
   <i type="int" name="MODEL_GW">     0</i>
   <i name="MODEL_EPS0">      7.76873013</i>
   <i name="MODEL_ALPHA">      1.00000000</i>
  </separator>
  <separator name="linear response parameters" >
   <i type="logical" name="LEPSILON"> F  </i>
   <i type="logical" name="LRPA"> F  </i>
   <i type="logical" name="LNABLA"> F  </i>
   <i type="logical" name="LVEL"> F  </i>
   <i type="int" name="KINTER">     0</i>
   <i name="CSHIFT">      0.10000000</i>
   <i name="OMEGAMAX">     -1.00000000</i>
   <i name="DEG_THRESHOLD">      0.00200000</i>
  </separator>
  <separator name="orbital magnetization" >
   <i type="logical" name="NUCIND"> F  </i>
   <v name="MAGPOS">      0.00000000      0.00000000      0.00000000</v>
   <i type="logical" name="LNICSALL"> T  </i>
   <i type="logical" name="ORBITALMAG"> F  </i>
   <i type="logical" name="LMAGBLOCH"> F  </i>
   <i type="logical" name="LCHIMAG"> F  </i>
   <i type="logical" name="LGAUGE"> T  </i>
   <i type="int" name="MAGATOM">     0</i>
   <v name="MAGDIPOL">      0.00000000      0.00000000      0.00000000</v>
   <v name="AVECCONST">      0.00000000      0.00000000      0.00000000</v>
  </separator>
  <separator name="response functions" >
   <i type="logical" name="LADDER"> F  </i>
   <i type="logical" name="LFXC"> F  </i>
   <i type="logical" name="LHARTREE"> T  </i>
   <i type="int" name="IBSE">     0</i>
   <v type="int" name="KPOINT">    -1     0     0     0</v>
   <i type="logical" name="LTCTE"> F  </i>
   <i type="logical" name="LTETE"> F  </i>
   <i type="logical" name="LTRIPLET"> F  </i>
   <i type="logical" name="LFXCEPS"> F  </i>
   <i type="logical" name="LFXHEG"> F  </i>
   <i type="int" name="NATURALO">     0</i>
   <i type="logical" name="L2ORDER"> F  </i>
   <i type="logical" name="LUSEW"> F  </i>
   <i name="ENCUTGW">     -2.00000000</i>
   <i name="ENCUTGWSOFT">     -2.00000000</i>
   <i name="ENCUTLF">     -1.00000000</i>
   <i type="int" name="LMAXMP2">    -1</i>
   <i name="SCISSOR">      0.00000000</i>
   <i type="int" name="NOMEGA">     0</i>
   <i type="int" name="NOMEGAR">     0</i>
   <i type="int" name="NBANDSGW">    -1</i>
   <i type="int" name="NBANDSO">    -1</i>
   <i type="int" name="NBANDSV">    -1</i>
   <i type="int" name="NELM">    40</i>
   <i type="int" name="NELMHF">     1</i>
   <i type="int" name="DIM">     3</i>
   <i type="int" name="ANTIRES">     0</i>
   <i name="OMEGAMAX">    -30.00000000</i>
   <i name="OMEGAMIN">    -30.00000000</i>
   <i name="OMEGATL">   -200.00000000</i>
   <i type="int" name="OMEGAGRID">     0</i>
   <i name="CSHIFT">     -0.10000000</i>
   <i type="logical" name="SELFENERGY"> F  </i>
   <i type="logical" name="LSPECTRAL"> F  </i>
   <i type="logical" name="LSPECTRALGW"> F  </i>
   <i type="logical" name="LSINGLES"> F  </i>
   <i type="logical" name="LFERMIGW"> F  </i>
   <i type="logical" name="ODDONLYGW"> F  </i>
   <i type="logical" name="EVENONLYGW"> F  </i>
   <i type="int" name="NKREDLFX">     1</i>
   <i type="int" name="NKREDLFY">     1</i>
   <i type="int" name="NKREDLFZ">     1</i>
   <i type="int" name="MAXMEM">  1800</i>
   <i type="int" name="TELESCOPE">     0</i>
   <i type="int" name="TAUPAR">     1</i>
   <i type="int" name="OMEGAPAR">    -1</i>
   <i name="LAMBDA">      1.00000000</i>
  </separator>
  <separator name="External order field" >
   <i name="OFIELD_KAPPA">      0.00000000</i>
   <v name="OFIELD_K">      0.00000000      0.00000000      0.00000000</v>
   <i name="OFIELD_Q6_NEAR">      0.00000000</i>
   <i name="OFIELD_Q6_FAR">      0.00000000</i>
   <i name="OFIELD_A">      0.00000000</i>
  </separator>
 </parameters>
 <atominfo>
  <atoms>     154 </atoms>
  <types>       4 </types>
  <array name="atoms" >
   <dimension dim="1">ion</dimension>
   <field type="string">element</field>
   <field type="int">atomtype</field>
   <set>
    <rc><c>Sr</c><c>   1</c></rc>
    <rc><c>Sr</c><c>   1</c></rc>
    <rc><c>Sr</c><c>   1</c></rc>
    <rc><c>Sr</c><c>   1</c></rc>
    <rc><c>Sr</c><c>   1</c></rc>
    <rc><c>Sr</c><c>   1</c></rc>
    <rc><c>Sr</c><c>   1</c></rc>
    <rc><c>Sr</c><c>   1</c></rc>
    <rc><c>Sr</c><c>   1</c></rc>
    <rc><c>Sr</c><c>   1</c></rc>
    <rc><c>Sr</c><c>   1</c></rc>
    <rc><c>Sr</c><c>   1</c></rc>
    <rc><c>Sr</c><c>   1</c></rc>
    <rc><c>Sr</c><c>   1</c></rc>
    <rc><c>Sr</c><c>   1</c></rc>
    <rc><c>Sr</c><c>   1</c></rc>
    <rc><c>Sr</c><c>   1</c></rc>
    <rc><c>Sr</c><c>   1</c></rc>
    <rc><c>Sr</c><c>   1</c></rc>
    <rc><c>Sr</c><c>   1</c></rc>
    <rc><c>Sr</c><c>   1</c></rc>
    <rc><c>Sr</c><c>   1</c></rc>
    <rc><c>Sr</c><c>   1</c></rc>
    <rc><c>Sr</c><c>   1</c></rc>
    <rc><c>Sr</c><c>   1</c></rc>
    <rc><c>Sr</c><c>   1</c></rc>
    <rc><c>Sr</c><c>   1</c></rc>
    <rc><c>Sr</c><c>   1</c></rc>
    <rc><c>Sr</c><c>   1</c></rc>
    <rc><c>Sr</c><c>   1</c></rc>
    <rc><c>Sr</c><c>   1</c></rc>
    <rc><c>Sr</c><c>   1</c></rc>
    <rc><c>Ti</c><c>   2</c></rc>
    <rc><c>Ti</c><c>   2</c></rc>
    <rc><c>Ti</c><c>   2</c></rc>
    <rc><c>Ti</c><c>   2</c></rc>
    <rc><c>Ti</c><c>   2</c></rc>
    <rc><c>Ti</c><c>   2</c></rc>
    <rc><c>Ti</c><c>   2</c></rc>
    <rc><c>Ti</c><c>   2</c></rc>
    <rc><c>Ti</c><c>   2</c></rc>
    <rc><c>Ti</c><c>   2</c></rc>
    <rc><c>Ti</c><c>   2</c></rc>
    <rc><c>Ti</c><c>   2</c></rc>
    <rc><c>Ti</c><c>   2</c></rc>
    <rc><c>Ti</c><c>   2</c></rc>
    <rc><c>Ti</c><c>   2</c></rc>
    <rc><c>Ti</c><c>   2</c></rc>
    <rc><c>Ti</c><c>   2</c></rc>
    <rc><c>Ti</c><c>   2</c></rc>
    <rc><c>Ti</c><c>   2</c></rc>
    <rc><c>Ti</c><c>   2</c></rc>
    <rc><c>Fe</c><c>   3</c></rc>
    <rc><c>Fe</c><c>   3</c></rc>
    <rc><c>Fe</c><c>   3</c></rc>
    <rc><c>Fe</c><c>   3</c></rc>
    <rc><c>Fe</c><c>   3</c></rc>
    <rc><c>Fe</c><c>   3</c></rc>
    <rc><c>Fe</c><c>   3</c></rc>
    <rc><c>Fe</c><c>   3</c></rc>
    <rc><c>Fe</c><c>   3</c></rc>
    <rc><c>Fe</c><c>   3</c></rc>
    <rc><c>Fe</c><c>   3</c></rc>
    <rc><c>Fe</c><c>   3</c></rc>
    <rc><c>O </c><c>   4</c></rc>
    <rc><c>O </c><c>   4</c></rc>
    <rc><c>O </c><c>   4</c></rc>
    <rc><c>O </c><c>   4</c></rc>
    <rc><c>O </c><c>   4</c></rc>
    <rc><c>O </c><c>   4</c></rc>
    <rc><c>O </c><c>   4</c></rc>
    <rc><c>O </c><c>   4</c></rc>
    <rc><c>O </c><c>   4</c></rc>
    <rc><c>O </c><c>   4</c></rc>
    <rc><c>O </c><c>   4</c></rc>
    <rc><c>O </c><c>   4</c></rc>
    <rc><c>O </c><c>   4</c></rc>
    <rc><c>O </c><c>   4</c></rc>
    <rc><c>O </c><c>   4</c></rc>
    <rc><c>O </c><c>   4</c></rc>
    <rc><c>O </c><c>   4</c></rc>
    <rc><c>O </c><c>   4</c></rc>
    <rc><c>O </c><c>   4</c></rc>
    <rc><c>O </c><c>   4</c></rc>
    <rc><c>O </c><c>   4</c></rc>
    <rc><c>O </c><c>   4</c></rc>
    <rc><c>O </c><c>   4</c></rc>
    <rc><c>O </c><c>   4</c></rc>
    <rc><c>O </c><c>   4</c></rc>
    <rc><c>O </c><c>   4</c></rc>
    <rc><c>O </c><c>   4</c></rc>
    <rc><c>O </c><c>   4</c></rc>
    <rc><c>O </c><c>   4</c></rc>
    <rc><c>O </c><c>   4</c></rc>
    <rc><c>O </c><c>   4</c></rc>
    <rc><c>O </c><c>   4</c></rc>
    <rc><c>O </c><c>   4</c></rc>
    <rc><c>O </c><c>   4</c></rc>
    <rc><c>O </c><c>   4</c></rc>
    <rc><c>O </c><c>   4</c></rc>
    <rc><c>O </c><c>   4</c></rc>
    <rc><c>O </c><c>   4</c></rc>
    <rc><c>O </c><c>   4</c></rc>
    <rc><c>O </c><c>   4</c></rc>
    <rc><c>O </c><c>   4</c></rc>
    <rc><c>O </c><c>   4</c></rc>
    <rc><c>O </c><c>   4</c></rc>
    <rc><c>O </c><c>   4</c></rc>
    <rc><c>O </c><c>   4</c></rc>
    <rc><c>O </c><c>   4</c></rc>
    <rc><c>O </c><c>   4</c></rc>
    <rc><c>O </c><c>   4</c></rc>
    <rc><c>O </c><c>   4</c></rc>
    <rc><c>O </c><c>   4</c></rc>
    <rc><c>O </c><c>   4</c></rc>
    <rc><c>O </c><c>   4</c></rc>
    <rc><c>O </c><c>   4</c></rc>
    <rc><c>O </c><c>   4</c></rc>
    <rc><c>O </c><c>   4</c></rc>
    <rc><c>O </c><c>   4</c></rc>
    <rc><c>O </c><c>   4</c></rc>
    <rc><c>O </c><c>   4</c></rc>
    <rc><c>O </c><c>   4</c></rc>
    <rc><c>O </c><c>   4</c></rc>
    <rc><c>O </c><c>   4</c></rc>
    <rc><c>O </c><c>   4</c></rc>
    <rc><c>O </c><c>   4</c></rc>
    <rc><c>O </c><c>   4</c></rc>
    <rc><c>O </c><c>   4</c></rc>
    <rc><c>O </c><c>   4</c></rc>
    <rc><c>O </c><c>   4</c></rc>
    <rc><c>O </c><c>   4</c></rc>
    <rc><c>O </c><c>   4</c></rc>
    <rc><c>O </c><c>   4</c></rc>
    <rc><c>O </c><c>   4</c></rc>
    <rc><c>O </c><c>   4</c></rc>
    <rc><c>O </c><c>   4</c></rc>
    <rc><c>O </c><c>   4</c></rc>
    <rc><c>O </c><c>   4</c></rc>
    <rc><c>O </c><c>   4</c></rc>
    <rc><c>O </c><c>   4</c></rc>
    <rc><c>O </c><c>   4</c></rc>
    <rc><c>O </c><c>   4</c></rc>
    <rc><c>O </c><c>   4</c></rc>
    <rc><c>O </c><c>   4</c></rc>
    <rc><c>O </c><c>   4</c></rc>
    <rc><c>O </c><c>   4</c></rc>
    <rc><c>O </c><c>   4</c></rc>
    <rc><c>O </c><c>   4</c></rc>
    <rc><c>O </c><c>   4</c></rc>
    <rc><c>O </c><c>   4</c></rc>
    <rc><c>O </c><c>   4</c></rc>
    <rc><c>O </c><c>   4</c></rc>
    <rc><c>O </c><c>   4</c></rc>
   </set>
  </array>
  <array name="atomtypes" >
   <dimension dim="1">type</dimension>
   <field type="int">atomspertype</field>
   <field type="string">element</field>
   <field>mass</field>
   <field>valence</field>
   <field type="string">pseudopotential</field>
   <set>
    <rc><c>  32</c><c>Sr</c><c>     87.62000000</c><c>     10.00000000</c><c>  PAW_PBE Sr_sv 07Sep2000               </c></rc>
    <rc><c>  20</c><c>Ti</c><c>     47.88000000</c><c>      4.00000000</c><c>  PAW_PBE Ti 08Apr2002                  </c></rc>
    <rc><c>  12</c><c>Fe</c><c>     55.84700000</c><c>      8.00000000</c><c>  PAW_PBE Fe 06Sep2000                  </c></rc>
    <rc><c>  90</c><c>O </c><c>     16.00000000</c><c>      6.00000000</c><c>  PAW_PBE O 08Apr2002                   </c></rc>
   </set>
  </array>
 </atominfo>
 <structure name="initialpos" >
  <crystal>
   <varray name="basis" >
    <v>      11.18279501       0.00000000       0.00000000 </v>
    <v>       0.00000000      11.17160525       0.00000000 </v>
    <v>       0.00000000       0.00000000      15.96075974 </v>
   </varray>
   <i name="volume">   1993.97406647 </i>
   <varray name="rec_basis" >
    <v>       0.08942308       0.00000000       0.00000000 </v>
    <v>       0.00000000       0.08951265       0.00000000 </v>
    <v>       0.00000000       0.00000000       0.06265366 </v>
   </varray>
  </crystal>
  <varray name="positions" >
   <v>       0.00000000       0.25000000       0.12500000 </v>
   <v>       0.00000000       0.25000000       0.62500000 </v>
   <v>       0.00000000       0.75000000       0.12500000 </v>
   <v>       0.00000000       0.75000000       0.62500000 </v>
   <v>       0.50000000       0.25000000       0.12500000 </v>
   <v>       0.50000000       0.25000000       0.62500000 </v>
   <v>       0.50000000       0.75000000       0.12500000 </v>
   <v>       0.50000000       0.75000000       0.62500000 </v>
   <v>       0.00000000       0.25000000       0.37325690 </v>
   <v>       0.00000000       0.25000000       0.87674310 </v>
   <v>       0.00000000       0.75000000       0.37325690 </v>
   <v>       0.00000000       0.75000000       0.87674310 </v>
   <v>       0.50000000       0.25000000       0.37125503 </v>
   <v>       0.50000000       0.25000000       0.87874497 </v>
   <v>       0.50000000       0.75000000       0.37125503 </v>
   <v>       0.50000000       0.75000000       0.87874497 </v>
   <v>       0.24948763       0.00000000       0.12500000 </v>
   <v>       0.24128921       0.00000000       0.62500000 </v>
   <v>       0.24948763       0.50000000       0.12500000 </v>
   <v>       0.24128921       0.50000000       0.62500000 </v>
   <v>       0.75051237       0.00000000       0.12500000 </v>
   <v>       0.75871079       0.00000000       0.62500000 </v>
   <v>       0.75051237       0.50000000       0.12500000 </v>
   <v>       0.75871079       0.50000000       0.62500000 </v>
   <v>       0.24875381       0.99903311       0.37290884 </v>
   <v>       0.24875381       0.00096689       0.87709116 </v>
   <v>       0.24875381       0.49903311       0.37290884 </v>
   <v>       0.24875381       0.50096689       0.87709116 </v>
   <v>       0.75124619       0.00096689       0.37290884 </v>
   <v>       0.75124619       0.99903311       0.87709116 </v>
   <v>       0.75124619       0.50096689       0.37290884 </v>
   <v>       0.75124619       0.49903311       0.87709116 </v>
   <v>       0.00000000       0.00000000       0.00309783 </v>
   <v>       0.00000000       0.00000000       0.49754685 </v>
   <v>       0.00000000       0.50000000       0.00309783 </v>
   <v>       0.00000000       0.50000000       0.49754685 </v>
   <v>       0.50000000       0.00000000       0.00499309 </v>
   <v>       0.50000000       0.50000000       0.00499309 </v>
   <v>       0.25380468       0.24984260       0.50297181 </v>
   <v>       0.25380468       0.74984260       0.50297181 </v>
   <v>       0.74619532       0.25015740       0.50297181 </v>
   <v>       0.74619532       0.75015740       0.50297181 </v>
   <v>       0.25380468       0.25015740       0.74702819 </v>
   <v>       0.25380468       0.75015740       0.74702819 </v>
   <v>       0.74619532       0.24984260       0.74702819 </v>
   <v>       0.74619532       0.74984260       0.74702819 </v>
   <v>       0.00000000       0.00000000       0.24690217 </v>
   <v>       0.00000000       0.00000000       0.75245315 </v>
   <v>       0.00000000       0.50000000       0.24690217 </v>
   <v>       0.00000000       0.50000000       0.75245315 </v>
   <v>       0.50000000       0.00000000       0.24500691 </v>
   <v>       0.50000000       0.50000000       0.24500691 </v>
   <v>       0.74869027       0.24989961       0.26138372 </v>
   <v>       0.74869027       0.25010039       0.98861628 </v>
   <v>       0.25130973       0.75010039       0.26138372 </v>
   <v>       0.25130973       0.74989961       0.98861628 </v>
   <v>       0.25130973       0.25010039       0.26138372 </v>
   <v>       0.25130973       0.24989961       0.98861628 </v>
   <v>       0.74869027       0.75010039       0.98861628 </v>
   <v>       0.74869027       0.74989961       0.26138372 </v>
   <v>       0.50000000       0.00000000       0.76036276 </v>
   <v>       0.50000000       0.00000000       0.48963724 </v>
   <v>       0.50000000       0.50000000       0.48963724 </v>
   <v>       0.50000000       0.50000000       0.76036276 </v>
   <v>       0.00000000       0.00000000       0.12500000 </v>
   <v>       0.00000000       0.00000000       0.62500000 </v>
   <v>       0.00000000       0.50000000       0.12500000 </v>
   <v>       0.00000000       0.50000000       0.62500000 </v>
   <v>       0.50000000       0.00000000       0.12500000 </v>
   <v>       0.50000000       0.50000000       0.12500000 </v>
   <v>       0.00000000       0.00000000       0.37061414 </v>
   <v>       0.00000000       0.00000000       0.87938586 </v>
   <v>       0.00000000       0.50000000       0.37061414 </v>
   <v>       0.00000000       0.50000000       0.87938586 </v>
   <v>       0.50000000       0.00000000       0.37037490 </v>
   <v>       0.50000000       0.00000000       0.87962510 </v>
   <v>       0.50000000       0.50000000       0.37037490 </v>
   <v>       0.50000000       0.50000000       0.87962510 </v>
   <v>       0.26273911       0.25231814       0.37949113 </v>
   <v>       0.26273911       0.24768186       0.87050887 </v>
   <v>       0.26273911       0.75231814       0.37949113 </v>
   <v>       0.26273911       0.74768186       0.87050887 </v>
   <v>       0.73726089       0.24768186       0.37949113 </v>
   <v>       0.73726089       0.25231814       0.87050887 </v>
   <v>       0.73726089       0.74768186       0.37949113 </v>
   <v>       0.73726089       0.75231814       0.87050887 </v>
   <v>       0.23513649       0.25000000       0.62500000 </v>
   <v>       0.23513649       0.75000000       0.62500000 </v>
   <v>       0.76486351       0.25000000       0.62500000 </v>
   <v>       0.76486351       0.75000000       0.62500000 </v>
   <v>       0.11947026       0.13553505       0.24370931 </v>
   <v>       0.36493721       0.11884445       0.24133961 </v>
   <v>       0.61855173       0.13517833       0.24043152 </v>
   <v>       0.86428997       0.11922759       0.24266410 </v>
   <v>       0.13571003       0.38077241       0.24266410 </v>
   <v>       0.38144827       0.36482167       0.24043152 </v>
   <v>       0.63506279       0.38115555       0.24133961 </v>
   <v>       0.88052974       0.36446495       0.24370931 </v>
   <v>       0.11947026       0.63553505       0.24370931 </v>
   <v>       0.36493721       0.61884445       0.24133961 </v>
   <v>       0.61855173       0.63517833       0.24043152 </v>
   <v>       0.86428997       0.61922759       0.24266410 </v>
   <v>       0.13571003       0.88077241       0.24266410 </v>
   <v>       0.38144827       0.86482167       0.24043152 </v>
   <v>       0.63506279       0.88115555       0.24133961 </v>
   <v>       0.88052974       0.86446495       0.24370931 </v>
   <v>       0.13801544       0.11132760       0.49562447 </v>
   <v>       0.38826139       0.13355599       0.51099786 </v>
   <v>       0.63395367       0.11178178       0.51202763 </v>
   <v>       0.88785218       0.13776797       0.49609401 </v>
   <v>       0.11214782       0.36223203       0.49609401 </v>
   <v>       0.36604633       0.38821822       0.51202763 </v>
   <v>       0.61173861       0.36644401       0.51099786 </v>
   <v>       0.86198456       0.38867240       0.49562447 </v>
   <v>       0.13801544       0.61132760       0.49562447 </v>
   <v>       0.38826139       0.63355599       0.51099786 </v>
   <v>       0.63395367       0.61178178       0.51202763 </v>
   <v>       0.88785218       0.63776797       0.49609401 </v>
   <v>       0.11214782       0.86223203       0.49609401 </v>
   <v>       0.36604633       0.88821822       0.51202763 </v>
   <v>       0.61173861       0.86644401       0.51099786 </v>
   <v>       0.86198456       0.88867240       0.49562447 </v>
   <v>       0.11214782       0.13776797       0.75390599 </v>
   <v>       0.36604633       0.11178178       0.73797237 </v>
   <v>       0.61173861       0.13355599       0.73900214 </v>
   <v>       0.86198456       0.11132760       0.75437553 </v>
   <v>       0.13801544       0.38867240       0.75437553 </v>
   <v>       0.38826139       0.36644401       0.73900214 </v>
   <v>       0.63395367       0.38821822       0.73797237 </v>
   <v>       0.88785218       0.36223203       0.75390599 </v>
   <v>       0.11214782       0.63776797       0.75390599 </v>
   <v>       0.36604633       0.61178178       0.73797237 </v>
   <v>       0.61173861       0.63355599       0.73900214 </v>
   <v>       0.86198456       0.61132760       0.75437553 </v>
   <v>       0.13801544       0.88867240       0.75437553 </v>
   <v>       0.38826139       0.86644401       0.73900214 </v>
   <v>       0.63395367       0.88821822       0.73797237 </v>
   <v>       0.88785218       0.86223203       0.75390599 </v>
   <v>       0.13571003       0.11922759       0.00733590 </v>
   <v>       0.38144827       0.13517833       0.00956848 </v>
   <v>       0.63506279       0.11884445       0.00866039 </v>
   <v>       0.88052974       0.13553505       0.00629069 </v>
   <v>       0.11947026       0.36446495       0.00629069 </v>
   <v>       0.36493721       0.38115555       0.00866039 </v>
   <v>       0.61855173       0.36482167       0.00956848 </v>
   <v>       0.86428997       0.38077241       0.00733590 </v>
   <v>       0.13571003       0.61922759       0.00733590 </v>
   <v>       0.38144827       0.63517833       0.00956848 </v>
   <v>       0.63506279       0.61884445       0.00866039 </v>
   <v>       0.88052974       0.63553505       0.00629069 </v>
   <v>       0.11947026       0.86446495       0.00629069 </v>
   <v>       0.36493721       0.88115555       0.00866039 </v>
   <v>       0.61855173       0.86482167       0.00956848 </v>
   <v>       0.86428997       0.88077241       0.00733590 </v>
  </varray>
 </structure>
 <calculation>
  <scstep>
   <time name="dav">   53.38   53.45</time>
   <time name="total">   55.10   55.17</time>
   <energy>
    <i name="alphaZ">   5654.04024123 </i>
    <i name="ewald"> -62380.76028246 </i>
    <i name="hartreedc"> -16255.22811014 </i>
    <i name="XCdc">   3074.81625985 </i>
    <i name="pawpsdc"> 111704.60224306 </i>
    <i name="pawaedc">-110758.04458589 </i>
    <i name="eentropy">     -0.00000000 </i>
    <i name="bandstr">  -7045.16376190 </i>
    <i name="atom">  74916.81196153 </i>
    <i name="e_fr_energy">  -1088.92603472 </i>
    <i name="e_wo_entrp">  -1088.92603472 </i>
    <i name="e_0_energy">  -1088.92603472 </i>
   </energy>
  </scstep>
  <scstep>
   <time name="diag">    8.25    8.26</time>
   <time name="diis">    7.61    7.61</time>
   <time name="orth">    4.72    4.72</time>
   <time name="total">   22.31   22.36</time>
   <energy>
    <i name="e_fr_energy">  -1088.92603323 </i>
    <i name="e_wo_entrp">  -1088.92603323 </i>
    <i name="e_0_energy">  -1088.92603323 </i>
   </energy>
  </scstep>
  <scstep>
   <time name="diag">    8.25    8.26</time>
   <time name="diis">    7.28    7.29</time>
   <time name="orth">    4.70    4.69</time>
   <time name="total">   21.95   22.00</time>
   <energy>
    <i name="e_fr_energy">  -1088.92603435 </i>
    <i name="e_wo_entrp">  -1088.92603435 </i>
    <i name="e_0_energy">  -1088.92603435 </i>
   </energy>
  </scstep>
  <scstep>
   <time name="diag">    8.28    8.28</time>
   <time name="diis">    6.61    6.62</time>
   <time name="orth">    4.69    4.70</time>
   <time name="total">   21.31   21.37</time>
   <energy>
    <i name="e_fr_energy">  -1088.92603454 </i>
    <i name="e_wo_entrp">  -1088.92603454 </i>
    <i name="e_0_energy">  -1088.92603454 </i>
   </energy>
  </scstep>
  <scstep>
   <time name="diag">    8.26    8.27</time>
   <time name="diis">    6.21    6.21</time>
   <time name="orth">    4.68    4.70</time>
   <time name="total">   20.87   20.97</time>
   <energy>
    <i name="e_fr_energy">  -1088.92603472 </i>
    <i name="e_wo_entrp">  -1088.92603472 </i>
    <i name="e_0_energy">  -1088.92603472 </i>
   </energy>
  </scstep>
  <scstep>
   <time name="diag">    8.26    8.26</time>
   <time name="diis">    5.92    5.93</time>
   <time name="orth">    4.70    4.70</time>
   <time name="total">   20.60   20.69</time>
   <energy>
    <i name="e_fr_energy">  -1088.92603472 </i>
    <i name="e_wo_entrp">  -1088.92603472 </i>
    <i name="e_0_energy">  -1088.92603472 </i>
   </energy>
  </scstep>
  <scstep>
   <time name="diag">    8.26    8.27</time>
   <time name="diis">    5.77    5.77</time>
   <time name="orth">    4.69    4.69</time>
   <time name="total">   20.44   20.47</time>
   <energy>
    <i name="e_fr_energy">  -1088.92603477 </i>
    <i name="e_wo_entrp">  -1088.92603477 </i>
    <i name="e_0_energy">  -1088.92603477 </i>
   </energy>
  </scstep>
  <scstep>
   <time name="diag">    8.26    8.27</time>
   <time name="diis">    5.66    5.66</time>
   <time name="orth">    4.69    4.70</time>
   <time name="total">   19.18   19.24</time>
   <energy>
    <i name="alphaZ">   5654.04024123 </i>
    <i name="ewald"> -62380.76028246 </i>
    <i name="hartreedc"> -16255.18640275 </i>
    <i name="XCdc">   3074.81507161 </i>
    <i name="pawpsdc"> 111704.41840263 </i>
    <i name="pawaedc">-110757.85550328 </i>
    <i name="eentropy">     -0.00000000 </i>
    <i name="bandstr">  -7045.20952324 </i>
    <i name="atom">  74916.81196153 </i>
    <i name="e_fr_energy">  -1088.92603472 </i>
    <i name="e_wo_entrp">  -1088.92603472 </i>
    <i name="e_0_energy">  -1088.92603472 </i>
   </energy>
  </scstep>
  <structure>
   <crystal>
    <varray name="basis" >
     <v>      11.18279501       0.00000000       0.00000000 </v>
     <v>       0.00000000      11.17160525       0.00000000 </v>
     <v>       0.00000000       0.00000000      15.96075974 </v>
    </varray>
    <i name="volume">   1993.97406647 </i>
    <varray name="rec_basis" >
     <v>       0.08942308       0.00000000       0.00000000 </v>
     <v>       0.00000000       0.08951265       0.00000000 </v>
     <v>       0.00000000       0.00000000       0.06265366 </v>
    </varray>
   </crystal>
   <varray name="positions" >
    <v>       0.00000000       0.25000000       0.12500000 </v>
    <v>       0.00000000       0.25000000       0.62500000 </v>
    <v>       0.00000000       0.75000000       0.12500000 </v>
    <v>       0.00000000       0.75000000       0.62500000 </v>
    <v>       0.50000000       0.25000000       0.12500000 </v>
    <v>       0.50000000       0.25000000       0.62500000 </v>
    <v>       0.50000000       0.75000000       0.12500000 </v>
    <v>       0.50000000       0.75000000       0.62500000 </v>
    <v>       0.00000000       0.25000000       0.37325690 </v>
    <v>       0.00000000       0.25000000       0.87674310 </v>
    <v>       0.00000000       0.75000000       0.37325690 </v>
    <v>       0.00000000       0.75000000       0.87674310 </v>
    <v>       0.50000000       0.25000000       0.37125503 </v>
    <v>       0.50000000       0.25000000       0.87874497 </v>
    <v>       0.50000000       0.75000000       0.37125503 </v>
    <v>       0.50000000       0.75000000       0.87874497 </v>
    <v>       0.24948763       0.00000000       0.12500000 </v>
    <v>       0.24128921       0.00000000       0.62500000 </v>
    <v>       0.24948763       0.50000000       0.12500000 </v>
    <v>       0.24128921       0.50000000       0.62500000 </v>
    <v>       0.75051237       0.00000000       0.12500000 </v>
    <v>       0.75871079       0.00000000       0.62500000 </v>
    <v>       0.75051237       0.50000000       0.12500000 </v>
    <v>       0.75871079       0.50000000       0.62500000 </v>
    <v>       0.24875381       0.99903311       0.37290884 </v>
    <v>       0.24875381       0.00096689       0.87709116 </v>
    <v>       0.24875381       0.49903311       0.37290884 </v>
    <v>       0.24875381       0.50096689       0.87709116 </v>
    <v>       0.75124619       0.00096689       0.37290884 </v>
    <v>       0.75124619       0.99903311       0.87709116 </v>
    <v>       0.75124619       0.50096689       0.37290884 </v>
    <v>       0.75124619       0.49903311       0.87709116 </v>
    <v>       0.00000000       0.00000000       0.00309783 </v>
    <v>       0.00000000       0.00000000       0.49754685 </v>
    <v>       0.00000000       0.50000000       0.00309783 </v>
    <v>       0.00000000       0.50000000       0.49754685 </v>
    <v>       0.50000000       0.00000000       0.00499309 </v>
    <v>       0.50000000       0.50000000       0.00499309 </v>
    <v>       0.25380468       0.24984260       0.50297181 </v>
    <v>       0.25380468       0.74984260       0.50297181 </v>
    <v>       0.74619532       0.25015740       0.50297181 </v>
    <v>       0.74619532       0.75015740       0.50297181 </v>
    <v>       0.25380468       0.25015740       0.74702819 </v>
    <v>       0.25380468       0.75015740       0.74702819 </v>
    <v>       0.74619532       0.24984260       0.74702819 </v>
    <v>       0.74619532       0.74984260       0.74702819 </v>
    <v>       0.00000000       0.00000000       0.24690217 </v>
    <v>       0.00000000       0.00000000       0.75245315 </v>
    <v>       0.00000000       0.50000000       0.24690217 </v>
    <v>       0.00000000       0.50000000       0.75245315 </v>
    <v>       0.50000000       0.00000000       0.24500691 </v>
    <v>       0.50000000       0.50000000       0.24500691 </v>
    <v>       0.74869027       0.24989961       0.26138372 </v>
    <v>       0.74869027       0.25010039       0.98861628 </v>
    <v>       0.25130973       0.75010039       0.26138372 </v>
    <v>       0.25130973       0.74989961       0.98861628 </v>
    <v>       0.25130973       0.25010039       0.26138372 </v>
    <v>       0.25130973       0.24989961       0.98861628 </v>
    <v>       0.74869027       0.75010039       0.98861628 </v>
    <v>       0.74869027       0.74989961       0.26138372 </v>
    <v>       0.50000000       0.00000000       0.76036276 </v>
    <v>       0.50000000       0.00000000       0.48963724 </v>
    <v>       0.50000000       0.50000000       0.48963724 </v>
    <v>       0.50000000       0.50000000       0.76036276 </v>
    <v>       0.00000000       0.00000000       0.12500000 </v>
    <v>       0.00000000       0.00000000       0.62500000 </v>
    <v>       0.00000000       0.50000000       0.12500000 </v>
    <v>       0.00000000       0.50000000       0.62500000 </v>
    <v>       0.50000000       0.00000000       0.12500000 </v>
    <v>       0.50000000       0.50000000       0.12500000 </v>
    <v>       0.00000000       0.00000000       0.37061414 </v>
    <v>       0.00000000       0.00000000       0.87938586 </v>
    <v>       0.00000000       0.50000000       0.37061414 </v>
    <v>       0.00000000       0.50000000       0.87938586 </v>
    <v>       0.50000000       0.00000000       0.37037490 </v>
    <v>       0.50000000       0.00000000       0.87962510 </v>
    <v>       0.50000000       0.50000000       0.37037490 </v>
    <v>       0.50000000       0.50000000       0.87962510 </v>
    <v>       0.26273911       0.25231814       0.37949113 </v>
    <v>       0.26273911       0.24768186       0.87050887 </v>
    <v>       0.26273911       0.75231814       0.37949113 </v>
    <v>       0.26273911       0.74768186       0.87050887 </v>
    <v>       0.73726089       0.24768186       0.37949113 </v>
    <v>       0.73726089       0.25231814       0.87050887 </v>
    <v>       0.73726089       0.74768186       0.37949113 </v>
    <v>       0.73726089       0.75231814       0.87050887 </v>
    <v>       0.23513649       0.25000000       0.62500000 </v>
    <v>       0.23513649       0.75000000       0.62500000 </v>
    <v>       0.76486351       0.25000000       0.62500000 </v>
    <v>       0.76486351       0.75000000       0.62500000 </v>
    <v>       0.11947026       0.13553505       0.24370931 </v>
    <v>       0.36493721       0.11884445       0.24133961 </v>
    <v>       0.61855173       0.13517833       0.24043152 </v>
    <v>       0.86428997       0.11922759       0.24266410 </v>
    <v>       0.13571003       0.38077241       0.24266410 </v>
    <v>       0.38144827       0.36482167       0.24043152 </v>
    <v>       0.63506279       0.38115555       0.24133961 </v>
    <v>       0.88052974       0.36446495       0.24370931 </v>
    <v>       0.11947026       0.63553505       0.24370931 </v>
    <v>       0.36493721       0.61884445       0.24133961 </v>
    <v>       0.61855173       0.63517833       0.24043152 </v>
    <v>       0.86428997       0.61922759       0.24266410 </v>
    <v>       0.13571003       0.88077241       0.24266410 </v>
    <v>       0.38144827       0.86482167       0.24043152 </v>
    <v>       0.63506279       0.88115555       0.24133961 </v>
    <v>       0.88052974       0.86446495       0.24370931 </v>
    <v>       0.13801544       0.11132760       0.49562447 </v>
    <v>       0.38826139       0.13355599       0.51099786 </v>
    <v>       0.63395367       0.11178178       0.51202763 </v>
    <v>       0.88785218       0.13776797       0.49609401 </v>
    <v>       0.11214782       0.36223203       0.49609401 </v>
    <v>       0.36604633       0.38821822       0.51202763 </v>
    <v>       0.61173861       0.36644401       0.51099786 </v>
    <v>       0.86198456       0.38867240       0.49562447 </v>
    <v>       0.13801544       0.61132760       0.49562447 </v>
    <v>       0.38826139       0.63355599       0.51099786 </v>
    <v>       0.63395367       0.61178178       0.51202763 </v>
    <v>       0.88785218       0.63776797       0.49609401 </v>
    <v>       0.11214782       0.86223203       0.49609401 </v>
    <v>       0.36604633       0.88821822       0.51202763 </v>
    <v>       0.61173861       0.86644401       0.51099786 </v>
    <v>       0.86198456       0.88867240       0.49562447 </v>
    <v>       0.11214782       0.13776797       0.75390599 </v>
    <v>       0.36604633       0.11178178       0.73797237 </v>
    <v>       0.61173861       0.13355599       0.73900214 </v>
    <v>       0.86198456       0.11132760       0.75437553 </v>
    <v>       0.13801544       0.38867240       0.75437553 </v>
    <v>       0.38826139       0.36644401       0.73900214 </v>
    <v>       0.63395367       0.38821822       0.73797237 </v>
    <v>       0.88785218       0.36223203       0.75390599 </v>
    <v>       0.11214782       0.63776797       0.75390599 </v>
    <v>       0.36604633       0.61178178       0.73797237 </v>
    <v>       0.61173861       0.63355599       0.73900214 </v>
    <v>       0.86198456       0.61132760       0.75437553 </v>
    <v>       0.13801544       0.88867240       0.75437553 </v>
    <v>       0.38826139       0.86644401       0.73900214 </v>
    <v>       0.63395367       0.88821822       0.73797237 </v>
    <v>       0.88785218       0.86223203       0.75390599 </v>
    <v>       0.13571003       0.11922759       0.00733590 </v>
    <v>       0.38144827       0.13517833       0.00956848 </v>
    <v>       0.63506279       0.11884445       0.00866039 </v>
    <v>       0.88052974       0.13553505       0.00629069 </v>
    <v>       0.11947026       0.36446495       0.00629069 </v>
    <v>       0.36493721       0.38115555       0.00866039 </v>
    <v>       0.61855173       0.36482167       0.00956848 </v>
    <v>       0.86428997       0.38077241       0.00733590 </v>
    <v>       0.13571003       0.61922759       0.00733590 </v>
    <v>       0.38144827       0.63517833       0.00956848 </v>
    <v>       0.63506279       0.61884445       0.00866039 </v>
    <v>       0.88052974       0.63553505       0.00629069 </v>
    <v>       0.11947026       0.86446495       0.00629069 </v>
    <v>       0.36493721       0.88115555       0.00866039 </v>
    <v>       0.61855173       0.86482167       0.00956848 </v>
    <v>       0.86428997       0.88077241       0.00733590 </v>
   </varray>
  </structure>
  <varray name="forces" >
   <v>      -0.00000000       0.00000000       0.00000000 </v>
   <v>      -0.00000000       0.00000000       0.00000000 </v>
   <v>      -0.00000000       0.00000000       0.00000000 </v>
   <v>      -0.00000000       0.00000000       0.00000000 </v>
   <v>      -0.00000000       0.00000000       0.00000000 </v>
   <v>      -0.00000000       0.00000000       0.00000000 </v>
   <v>      -0.00000000       0.00000000       0.00000000 </v>
   <v>      -0.00000000       0.00000000       0.00000000 </v>
   <v>      -0.00000000       0.00000000       0.02088140 </v>
   <v>      -0.00000000       0.00000000      -0.02088140 </v>
   <v>      -0.00000000       0.00000000       0.02088140 </v>
   <v>      -0.00000000       0.00000000      -0.02088140 </v>
   <v>      -0.00000000       0.00000000       0.00542162 </v>
   <v>      -0.00000000       0.00000000      -0.00542162 </v>
   <v>      -0.00000000       0.00000000       0.00542162 </v>
   <v>      -0.00000000       0.00000000      -0.00542162 </v>
   <v>      -0.00453150       0.00000000       0.00000000 </v>
   <v>       0.00958950       0.00000000       0.00000000 </v>
   <v>      -0.00453150       0.00000000       0.00000000 </v>
   <v>       0.00958950       0.00000000       0.00000000 </v>
   <v>       0.00453150       0.00000000       0.00000000 </v>
   <v>      -0.00958950       0.00000000       0.00000000 </v>
   <v>       0.00453150       0.00000000       0.00000000 </v>
   <v>      -0.00958950       0.00000000       0.00000000 </v>
   <v>      -0.01996425       0.00318178      -0.00098951 </v>
   <v>      -0.01996425      -0.00318178       0.00098951 </v>
   <v>      -0.01996425       0.00318178      -0.00098951 </v>
   <v>      -0.01996425      -0.00318178       0.00098951 </v>
   <v>       0.01996425      -0.00318178      -0.00098951 </v>
   <v>       0.01996425       0.00318178       0.00098951 </v>
   <v>       0.01996425      -0.00318178      -0.00098951 </v>
   <v>       0.01996425       0.00318178       0.00098951 </v>
   <v>      -0.00000000       0.00000000       0.03322860 </v>
   <v>      -0.00000000       0.00000000       0.04653792 </v>
   <v>      -0.00000000       0.00000000       0.03322860 </v>
   <v>      -0.00000000       0.00000000       0.04653792 </v>
   <v>      -0.00000000       0.00000000      -0.02137721 </v>
   <v>      -0.00000000       0.00000000      -0.02137721 </v>
   <v>       0.00082507      -0.00110604      -0.01871797 </v>
   <v>       0.00082507      -0.00110604      -0.01871797 </v>
   <v>      -0.00082507       0.00110604      -0.01871797 </v>
   <v>      -0.00082507       0.00110604      -0.01871797 </v>
   <v>       0.00082507       0.00110604       0.01871797 </v>
   <v>       0.00082507       0.00110604       0.01871797 </v>
   <v>      -0.00082507      -0.00110604       0.01871797 </v>
   <v>      -0.00082507      -0.00110604       0.01871797 </v>
   <v>      -0.00000000       0.00000000      -0.03322860 </v>
   <v>      -0.00000000       0.00000000      -0.04653792 </v>
   <v>      -0.00000000       0.00000000      -0.03322860 </v>
   <v>      -0.00000000       0.00000000      -0.04653792 </v>
   <v>      -0.00000000       0.00000000       0.02137721 </v>
   <v>      -0.00000000       0.00000000       0.02137721 </v>
   <v>       0.00868960       0.00206387      -0.01411802 </v>
   <v>       0.00868960      -0.00206387       0.01411802 </v>
   <v>      -0.00868960      -0.00206387      -0.01411802 </v>
   <v>      -0.00868960       0.00206387       0.01411802 </v>
   <v>      -0.00868960      -0.00206387      -0.01411802 </v>
   <v>      -0.00868960       0.00206387       0.01411802 </v>
   <v>       0.00868960      -0.00206387       0.01411802 </v>
   <v>       0.00868960       0.00206387      -0.01411802 </v>
   <v>      -0.00000000       0.00000000      -0.00337837 </v>
   <v>      -0.00000000       0.00000000       0.00337837 </v>
   <v>      -0.00000000       0.00000000       0.00337837 </v>
   <v>      -0.00000000       0.00000000      -0.00337837 </v>
   <v>      -0.00000000       0.00000000       0.00000000 </v>
   <v>      -0.00000000       0.00000000       0.00000000 </v>
   <v>      -0.00000000       0.00000000       0.00000000 </v>
   <v>      -0.00000000       0.00000000       0.00000000 </v>
   <v>      -0.00000000       0.00000000       0.00000000 </v>
   <v>      -0.00000000       0.00000000       0.00000000 </v>
   <v>      -0.00000000       0.00000000       0.02455063 </v>
   <v>      -0.00000000       0.00000000      -0.02455063 </v>
   <v>      -0.00000000       0.00000000       0.02455063 </v>
   <v>      -0.00000000       0.00000000      -0.02455063 </v>
   <v>      -0.00000000       0.00000000      -0.01589426 </v>
   <v>      -0.00000000       0.00000000       0.01589426 </v>
   <v>      -0.00000000       0.00000000      -0.01589426 </v>
   <v>      -0.00000000       0.00000000       0.01589426 </v>
   <v>      -0.01045812      -0.00659025       0.01341134 </v>
   <v>      -0.01045812       0.00659025      -0.01341134 </v>
   <v>      -0.01045812      -0.00659025       0.01341134 </v>
   <v>      -0.01045812       0.00659025      -0.01341134 </v>
   <v>       0.01045812       0.00659025       0.01341134 </v>
   <v>       0.01045812      -0.00659025      -0.01341134 </v>
   <v>       0.01045812       0.00659025       0.01341134 </v>
   <v>       0.01045812      -0.00659025      -0.01341134 </v>
   <v>       0.01337814       0.00000000       0.00000000 </v>
   <v>       0.01337814       0.00000000       0.00000000 </v>
   <v>      -0.01337814       0.00000000       0.00000000 </v>
   <v>      -0.01337814       0.00000000       0.00000000 </v>
   <v>       0.00271575      -0.01016601       0.00531488 </v>
   <v>       0.01228917      -0.00518995      -0.01691516 </v>
   <v>      -0.00223138      -0.00980940      -0.01079527 </v>
   <v>       0.00858556       0.00490427       0.01369932 </v>
   <v>      -0.00858556      -0.00490427       0.01369932 </v>
   <v>       0.00223138       0.00980940      -0.01079527 </v>
   <v>      -0.01228917       0.00518995      -0.01691516 </v>
   <v>      -0.00271575       0.01016601       0.00531488 </v>
   <v>       0.00271575      -0.01016601       0.00531488 </v>
   <v>       0.01228917      -0.00518995      -0.01691516 </v>
   <v>      -0.00223138      -0.00980940      -0.01079527 </v>
   <v>       0.00858556       0.00490427       0.01369932 </v>
   <v>      -0.00858556      -0.00490427       0.01369932 </v>
   <v>       0.00223138       0.00980940      -0.01079527 </v>
   <v>      -0.01228917       0.00518995      -0.01691516 </v>
   <v>      -0.00271575       0.01016601       0.00531488 </v>
   <v>      -0.00876357       0.00601482      -0.00724469 </v>
   <v>      -0.01350444      -0.00284180      -0.00378722 </v>
   <v>      -0.00105375       0.01329340       0.01043156 </v>
   <v>      -0.00363803      -0.00134576      -0.00623972 </v>
   <v>       0.00363803       0.00134576      -0.00623972 </v>
   <v>       0.00105375      -0.01329340       0.01043156 </v>
   <v>       0.01350444       0.00284180      -0.00378722 </v>
   <v>       0.00876357      -0.00601482      -0.00724469 </v>
   <v>      -0.00876357       0.00601482      -0.00724469 </v>
   <v>      -0.01350444      -0.00284180      -0.00378722 </v>
   <v>      -0.00105375       0.01329340       0.01043156 </v>
   <v>      -0.00363803      -0.00134576      -0.00623972 </v>
   <v>       0.00363803       0.00134576      -0.00623972 </v>
   <v>       0.00105375      -0.01329340       0.01043156 </v>
   <v>       0.01350444       0.00284180      -0.00378722 </v>
   <v>       0.00876357      -0.00601482      -0.00724469 </v>
   <v>       0.00363803      -0.00134576       0.00623972 </v>
   <v>       0.00105375       0.01329340      -0.01043156 </v>
   <v>       0.01350444      -0.00284180       0.00378722 </v>
   <v>       0.00876357       0.00601482       0.00724469 </v>
   <v>      -0.00876357      -0.00601482       0.00724469 </v>
   <v>      -0.01350444       0.00284180       0.00378722 </v>
   <v>      -0.00105375      -0.01329340      -0.01043156 </v>
   <v>      -0.00363803       0.00134576       0.00623972 </v>
   <v>       0.00363803      -0.00134576       0.00623972 </v>
   <v>       0.00105375       0.01329340      -0.01043156 </v>
   <v>       0.01350444      -0.00284180       0.00378722 </v>
   <v>       0.00876357       0.00601482       0.00724469 </v>
   <v>      -0.00876357      -0.00601482       0.00724469 </v>
   <v>      -0.01350444       0.00284180       0.00378722 </v>
   <v>      -0.00105375      -0.01329340      -0.01043156 </v>
   <v>      -0.00363803       0.00134576       0.00623972 </v>
   <v>      -0.00858556       0.00490427      -0.01369932 </v>
   <v>       0.00223138      -0.00980940       0.01079527 </v>
   <v>      -0.01228917      -0.00518995       0.01691516 </v>
   <v>      -0.00271575      -0.01016601      -0.00531488 </v>
   <v>       0.00271575       0.01016601      -0.00531488 </v>
   <v>       0.01228917       0.00518995       0.01691516 </v>
   <v>      -0.00223138       0.00980940       0.01079527 </v>
   <v>       0.00858556      -0.00490427      -0.01369932 </v>
   <v>      -0.00858556       0.00490427      -0.01369932 </v>
   <v>       0.00223138      -0.00980940       0.01079527 </v>
   <v>      -0.01228917      -0.00518995       0.01691516 </v>
   <v>      -0.00271575      -0.01016601      -0.00531488 </v>
   <v>       0.00271575       0.01016601      -0.00531488 </v>
   <v>       0.01228917       0.00518995       0.01691516 </v>
   <v>      -0.00223138       0.00980940       0.01079527 </v>
   <v>       0.00858556      -0.00490427      -0.01369932 </v>
  </varray>
  <varray name="stress" >
   <v>       0.15047860       0.00000000       0.00000000 </v>
   <v>       0.00000000       0.11627839       0.00000000 </v>
   <v>       0.00000000       0.00000000       0.33772283 </v>
  </varray>
  <energy>
   <i name="e_fr_energy">  -1088.92603472 </i>
   <i name="e_wo_entrp">  -1088.92603472 </i>
   <i name="e_0_energy">     -0.00000000 </i>
  </energy>
  <time name="totalsc">  262.75  265.11</time>
 </calculation>
 <calculation>
  <scstep>
   <time name="dav">   72.75   72.81</time>
   <time name="total">   74.47   74.56</time>
   <energy>
    <i name="alphaZ">   5652.70798459 </i>
    <i name="ewald"> -62378.32527496 </i>
    <i name="hartreedc"> -16251.52899921 </i>
    <i name="XCdc">   3074.48717832 </i>
    <i name="pawpsdc"> 111704.40902456 </i>
    <i name="pawaedc">-110757.84655876 </i>
    <i name="eentropy">     -0.00000000 </i>
    <i name="bandstr">  -7049.64196719 </i>
    <i name="atom">  74916.81196153 </i>
    <i name="e_fr_energy">  -1088.92665112 </i>
    <i name="e_wo_entrp">  -1088.92665112 </i>
    <i name="e_0_energy">  -1088.92665112 </i>
   </energy>
  </scstep>
  <scstep>
   <time name="diag">    8.26    8.26</time>
   <time name="diis">   12.96   12.96</time>
   <time name="orth">    4.69    4.70</time>
   <time name="total">   27.63   27.65</time>
   <energy>
    <i name="e_fr_energy">  -1088.92725538 </i>
    <i name="e_wo_entrp">  -1088.92725538 </i>
    <i name="e_0_energy">  -1088.92725538 </i>
   </energy>
  </scstep>
  <scstep>
   <time name="diag">    8.26    8.27</time>
   <time name="diis">   11.99   11.99</time>
   <time name="orth">    4.71    4.71</time>
   <time name="total">   26.69   26.77</time>
   <energy>
    <i name="e_fr_energy">  -1088.92720382 </i>
    <i name="e_wo_entrp">  -1088.92720382 </i>
    <i name="e_0_energy">  -1088.92720382 </i>
   </energy>
  </scstep>
  <scstep>
   <time name="diag">    8.27    8.27</time>
   <time name="diis">    8.40    8.40</time>
   <time name="orth">    4.69    4.69</time>
   <time name="total">   23.09   23.17</time>
   <energy>
    <i name="e_fr_energy">  -1088.92713002 </i>
    <i name="e_wo_entrp">  -1088.92713002 </i>
    <i name="e_0_energy">  -1088.92713002 </i>
   </energy>
  </scstep>
  <scstep>
   <time name="diag">    8.26    8.27</time>
   <time name="diis">    8.22    8.22</time>
   <time name="orth">    4.68    4.68</time>
   <time name="total">   22.89   22.95</time>
   <energy>
    <i name="e_fr_energy">  -1088.92708781 </i>
    <i name="e_wo_entrp">  -1088.92708781 </i>
    <i name="e_0_energy">  -1088.92708781 </i>
   </energy>
  </scstep>
  <scstep>
   <time name="diag">    8.26    8.26</time>
   <time name="diis">    7.96    7.96</time>
   <time name="orth">    4.70    4.70</time>
   <time name="total">   22.65   22.68</time>
   <energy>
    <i name="e_fr_energy">  -1088.92708821 </i>
    <i name="e_wo_entrp">  -1088.92708821 </i>
    <i name="e_0_energy">  -1088.92708821 </i>
   </energy>
  </scstep>
  <scstep>
   <time name="diag">    8.27    8.27</time>
   <time name="diis">    7.82    7.82</time>
   <time name="orth">    4.70    4.70</time>
   <time name="total">   22.50   22.56</time>
   <energy>
    <i name="e_fr_energy">  -1088.92708836 </i>
    <i name="e_wo_entrp">  -1088.92708836 </i>
    <i name="e_0_energy">  -1088.92708836 </i>
   </energy>
  </scstep>
  <scstep>
   <time name="diag">    8.26    8.26</time>
   <time name="diis">    7.49    7.49</time>
   <time name="orth">    4.70    4.70</time>
   <time name="total">   21.02   21.10</time>
   <energy>
    <i name="alphaZ">   5652.70798459 </i>
    <i name="ewald"> -62378.32527496 </i>
    <i name="hartreedc"> -16254.79746891 </i>
    <i name="XCdc">   3074.72121321 </i>
    <i name="pawpsdc"> 111651.95943651 </i>
    <i name="pawaedc">-110705.33108126 </i>
    <i name="eentropy">     -0.00000000 </i>
    <i name="bandstr">  -7046.67385787 </i>
    <i name="atom">  74916.81196153 </i>
    <i name="e_fr_energy">  -1088.92708715 </i>
    <i name="e_wo_entrp">  -1088.92708715 </i>
    <i name="e_0_energy">  -1088.92708715 </i>
   </energy>
  </scstep>
  <structure>
   <crystal>
    <varray name="basis" >
     <v>      11.18345107       0.00000000       0.00000000 </v>
     <v>       0.00000000      11.17211170       0.00000000 </v>
     <v>       0.00000000       0.00000000      15.96286126 </v>
    </varray>
    <i name="volume">   1994.44401559 </i>
    <varray name="rec_basis" >
     <v>       0.08941784       0.00000000       0.00000000 </v>
     <v>       0.00000000       0.08950859       0.00000000 </v>
     <v>       0.00000000       0.00000000       0.06264541 </v>
    </varray>
   </crystal>
   <varray name="positions" >
    <v>      -0.00000000       0.25000000       0.12500000 </v>
    <v>      -0.00000000       0.25000000       0.62500000 </v>
    <v>      -0.00000000       0.75000000       0.12500000 </v>
    <v>      -0.00000000       0.75000000       0.62500000 </v>
    <v>       0.50000000       0.25000000       0.12500000 </v>
    <v>       0.50000000       0.25000000       0.62500000 </v>
    <v>       0.50000000       0.75000000       0.12500000 </v>
    <v>       0.50000000       0.75000000       0.62500000 </v>
    <v>      -0.00000000       0.25000000       0.37332001 </v>
    <v>      -0.00000000       0.25000000       0.87667999 </v>
    <v>      -0.00000000       0.75000000       0.37332001 </v>
    <v>      -0.00000000       0.75000000       0.87667999 </v>
    <v>       0.50000000       0.25000000       0.37127142 </v>
    <v>       0.50000000       0.25000000       0.87872858 </v>
    <v>       0.50000000       0.75000000       0.37127142 </v>
    <v>       0.50000000       0.75000000       0.87872858 </v>
    <v>       0.24946808       0.00000000       0.12500000 </v>
    <v>       0.24133058       0.00000000       0.62500000 </v>
    <v>       0.24946808       0.50000000       0.12500000 </v>
    <v>       0.24133058       0.50000000       0.62500000 </v>
    <v>       0.75053192       0.00000000       0.12500000 </v>
    <v>       0.75866942       0.00000000       0.62500000 </v>
    <v>       0.75053192       0.50000000       0.12500000 </v>
    <v>       0.75866942       0.50000000       0.62500000 </v>
    <v>       0.24866769       0.99904685       0.37290585 </v>
    <v>       0.24866769       0.00095315       0.87709415 </v>
    <v>       0.24866769       0.49904685       0.37290585 </v>
    <v>       0.24866769       0.50095315       0.87709415 </v>
    <v>       0.75133231       0.00095315       0.37290585 </v>
    <v>       0.75133231       0.99904685       0.87709415 </v>
    <v>       0.75133231       0.50095315       0.37290585 </v>
    <v>       0.75133231       0.49904685       0.87709415 </v>
    <v>      -0.00000000       0.00000000       0.00319827 </v>
    <v>      -0.00000000       0.00000000       0.49768751 </v>
    <v>      -0.00000000       0.50000000       0.00319827 </v>
    <v>      -0.00000000       0.50000000       0.49768751 </v>
    <v>       0.50000000       0.00000000       0.00492848 </v>
    <v>       0.50000000       0.50000000       0.00492848 </v>
    <v>       0.25380824       0.24983782       0.50291524 </v>
    <v>       0.25380824       0.74983782       0.50291524 </v>
    <v>       0.74619176       0.25016218       0.50291524 </v>
    <v>       0.74619176       0.75016218       0.50291524 </v>
    <v>       0.25380824       0.25016218       0.74708476 </v>
    <v>       0.25380824       0.75016218       0.74708476 </v>
    <v>       0.74619176       0.24983782       0.74708476 </v>
    <v>       0.74619176       0.74983782       0.74708476 </v>
    <v>      -0.00000000       0.00000000       0.24680173 </v>
    <v>      -0.00000000       0.00000000       0.75231249 </v>
    <v>      -0.00000000       0.50000000       0.24680173 </v>
    <v>      -0.00000000       0.50000000       0.75231249 </v>
    <v>       0.50000000       0.00000000       0.24507152 </v>
    <v>       0.50000000       0.50000000       0.24507152 </v>
    <v>       0.74872775       0.24990852       0.26134105 </v>
    <v>       0.74872775       0.25009148       0.98865895 </v>
    <v>       0.25127225       0.75009148       0.26134105 </v>
    <v>       0.25127225       0.74990852       0.98865895 </v>
    <v>       0.25127225       0.25009148       0.26134105 </v>
    <v>       0.25127225       0.24990852       0.98865895 </v>
    <v>       0.74872775       0.75009148       0.98865895 </v>
    <v>       0.74872775       0.74990852       0.26134105 </v>
    <v>       0.50000000       0.00000000       0.76035255 </v>
    <v>       0.50000000       0.00000000       0.48964745 </v>
    <v>       0.50000000       0.50000000       0.48964745 </v>
    <v>       0.50000000       0.50000000       0.76035255 </v>
    <v>      -0.00000000       0.00000000       0.12500000 </v>
    <v>      -0.00000000       0.00000000       0.62500000 </v>
    <v>      -0.00000000       0.50000000       0.12500000 </v>
    <v>      -0.00000000       0.50000000       0.62500000 </v>
    <v>       0.50000000       0.00000000       0.12500000 </v>
    <v>       0.50000000       0.50000000       0.12500000 </v>
    <v>      -0.00000000       0.00000000       0.37068835 </v>
    <v>      -0.00000000       0.00000000       0.87931165 </v>
    <v>      -0.00000000       0.50000000       0.37068835 </v>
    <v>      -0.00000000       0.50000000       0.87931165 </v>
    <v>       0.50000000       0.00000000       0.37032686 </v>
    <v>       0.50000000       0.00000000       0.87967314 </v>
    <v>       0.50000000       0.50000000       0.37032686 </v>
    <v>       0.50000000       0.50000000       0.87967314 </v>
    <v>       0.26269400       0.25228968       0.37953167 </v>
    <v>       0.26269400       0.24771032       0.87046833 </v>
    <v>       0.26269400       0.75228968       0.37953167 </v>
    <v>       0.26269400       0.74771032       0.87046833 </v>
    <v>       0.73730600       0.24771032       0.37953167 </v>
    <v>       0.73730600       0.25228968       0.87046833 </v>
    <v>       0.73730600       0.74771032       0.37953167 </v>
    <v>       0.73730600       0.75228968       0.87046833 </v>
    <v>       0.23519421       0.25000000       0.62500000 </v>
    <v>       0.23519421       0.75000000       0.62500000 </v>
    <v>       0.76480579       0.25000000       0.62500000 </v>
    <v>       0.76480579       0.75000000       0.62500000 </v>
    <v>       0.11948198       0.13549115       0.24372537 </v>
    <v>       0.36499023       0.11882203       0.24128848 </v>
    <v>       0.61854211       0.13513597       0.24039889 </v>
    <v>       0.86432700       0.11924876       0.24270550 </v>
    <v>       0.13567300       0.38075124       0.24270550 </v>
    <v>       0.38145789       0.36486403       0.24039889 </v>
    <v>       0.63500977       0.38117797       0.24128848 </v>
    <v>       0.88051802       0.36450885       0.24372537 </v>
    <v>       0.11948198       0.63549115       0.24372537 </v>
    <v>       0.36499023       0.61882203       0.24128848 </v>
    <v>       0.61854211       0.63513597       0.24039889 </v>
    <v>       0.86432700       0.61924876       0.24270550 </v>
    <v>       0.13567300       0.88075124       0.24270550 </v>
    <v>       0.38145789       0.86486403       0.24039889 </v>
    <v>       0.63500977       0.88117797       0.24128848 </v>
    <v>       0.88051802       0.86450885       0.24372537 </v>
    <v>       0.13797764       0.11135358       0.49560257 </v>
    <v>       0.38820313       0.13354372       0.51098641 </v>
    <v>       0.63394912       0.11183919       0.51205916 </v>
    <v>       0.88783648       0.13776216       0.49607515 </v>
    <v>       0.11216352       0.36223784       0.49607515 </v>
    <v>       0.36605088       0.38816081       0.51205916 </v>
    <v>       0.61179687       0.36645628       0.51098641 </v>
    <v>       0.86202236       0.38864642       0.49560257 </v>
    <v>       0.13797764       0.61135358       0.49560257 </v>
    <v>       0.38820313       0.63354372       0.51098641 </v>
    <v>       0.63394912       0.61183919       0.51205916 </v>
    <v>       0.88783648       0.63776216       0.49607515 </v>
    <v>       0.11216352       0.86223784       0.49607515 </v>
    <v>       0.36605088       0.88816081       0.51205916 </v>
    <v>       0.61179687       0.86645628       0.51098641 </v>
    <v>       0.86202236       0.88864642       0.49560257 </v>
    <v>       0.11216352       0.13776216       0.75392485 </v>
    <v>       0.36605088       0.11183919       0.73794084 </v>
    <v>       0.61179687       0.13354372       0.73901359 </v>
    <v>       0.86202236       0.11135358       0.75439743 </v>
    <v>       0.13797764       0.38864642       0.75439743 </v>
    <v>       0.38820313       0.36645628       0.73901359 </v>
    <v>       0.63394912       0.38816081       0.73794084 </v>
    <v>       0.88783648       0.36223784       0.75392485 </v>
    <v>       0.11216352       0.63776216       0.75392485 </v>
    <v>       0.36605088       0.61183919       0.73794084 </v>
    <v>       0.61179687       0.63354372       0.73901359 </v>
    <v>       0.86202236       0.61135358       0.75439743 </v>
    <v>       0.13797764       0.88864642       0.75439743 </v>
    <v>       0.38820313       0.86645628       0.73901359 </v>
    <v>       0.63394912       0.88816081       0.73794084 </v>
    <v>       0.88783648       0.86223784       0.75392485 </v>
    <v>       0.13567300       0.11924876       0.00729450 </v>
    <v>       0.38145789       0.13513597       0.00960111 </v>
    <v>       0.63500977       0.11882203       0.00871152 </v>
    <v>       0.88051802       0.13549115       0.00627463 </v>
    <v>       0.11948198       0.36450885       0.00627463 </v>
    <v>       0.36499023       0.38117797       0.00871152 </v>
    <v>       0.61854211       0.36486403       0.00960111 </v>
    <v>       0.86432700       0.38075124       0.00729450 </v>
    <v>       0.13567300       0.61924876       0.00729450 </v>
    <v>       0.38145789       0.63513597       0.00960111 </v>
    <v>       0.63500977       0.61882203       0.00871152 </v>
    <v>       0.88051802       0.63549115       0.00627463 </v>
    <v>       0.11948198       0.86450885       0.00627463 </v>
    <v>       0.36499023       0.88117797       0.00871152 </v>
    <v>       0.61854211       0.86486403       0.00960111 </v>
    <v>       0.86432700       0.88075124       0.00729450 </v>
   </varray>
  </structure>
  <varray name="forces" >
   <v>       0.00000000       0.00000000       0.00000000 </v>
   <v>       0.00000000       0.00000000       0.00000000 </v>
   <v>       0.00000000       0.00000000       0.00000000 </v>
   <v>       0.00000000       0.00000000       0.00000000 </v>
   <v>       0.00000000       0.00000000       0.00000000 </v>
   <v>       0.00000000       0.00000000       0.00000000 </v>
   <v>       0.00000000       0.00000000       0.00000000 </v>
   <v>       0.00000000       0.00000000       0.00000000 </v>
   <v>       0.00000000       0.00000000       0.02205516 </v>
   <v>       0.00000000       0.00000000      -0.02205516 </v>
   <v>       0.00000000       0.00000000       0.02205516 </v>
   <v>       0.00000000       0.00000000      -0.02205516 </v>
   <v>       0.00000000       0.00000000       0.00296504 </v>
   <v>       0.00000000       0.00000000      -0.00296504 </v>
   <v>       0.00000000       0.00000000       0.00296504 </v>
   <v>       0.00000000       0.00000000      -0.00296504 </v>
   <v>       0.01319190       0.00000000       0.00000000 </v>
   <v>       0.01485071       0.00000000       0.00000000 </v>
   <v>       0.01319190       0.00000000       0.00000000 </v>
   <v>       0.01485071       0.00000000       0.00000000 </v>
   <v>      -0.01319190       0.00000000       0.00000000 </v>
   <v>      -0.01485071       0.00000000       0.00000000 </v>
   <v>      -0.01319190       0.00000000       0.00000000 </v>
   <v>      -0.01485071       0.00000000       0.00000000 </v>
   <v>      -0.02463421       0.00246584       0.00162886 </v>
   <v>      -0.02463421      -0.00246584      -0.00162886 </v>
   <v>      -0.02463421       0.00246584       0.00162886 </v>
   <v>      -0.02463421      -0.00246584      -0.00162886 </v>
   <v>       0.02463421      -0.00246584       0.00162886 </v>
   <v>       0.02463421       0.00246584      -0.00162886 </v>
   <v>       0.02463421      -0.00246584       0.00162886 </v>
   <v>       0.02463421       0.00246584      -0.00162886 </v>
   <v>       0.00000000       0.00000000      -0.04618816 </v>
   <v>       0.00000000       0.00000000      -0.01863876 </v>
   <v>       0.00000000       0.00000000      -0.04618816 </v>
   <v>       0.00000000       0.00000000      -0.01863876 </v>
   <v>       0.00000000       0.00000000       0.03935656 </v>
   <v>       0.00000000       0.00000000       0.03935656 </v>
   <v>      -0.00641564      -0.00212748       0.00926173 </v>
   <v>      -0.00641564      -0.00212748       0.00926173 </v>
   <v>       0.00641564       0.00212748       0.00926173 </v>
   <v>       0.00641564       0.00212748       0.00926173 </v>
   <v>      -0.00641564       0.00212748      -0.00926173 </v>
   <v>      -0.00641564       0.00212748      -0.00926173 </v>
   <v>       0.00641564      -0.00212748      -0.00926173 </v>
   <v>       0.00641564      -0.00212748      -0.00926173 </v>
   <v>       0.00000000       0.00000000       0.04618816 </v>
   <v>       0.00000000       0.00000000       0.01863876 </v>
   <v>       0.00000000       0.00000000       0.04618816 </v>
   <v>       0.00000000       0.00000000       0.01863876 </v>
   <v>       0.00000000       0.00000000      -0.03935656 </v>
   <v>       0.00000000       0.00000000      -0.03935656 </v>
   <v>      -0.00972718       0.00230747       0.00470600 </v>
   <v>      -0.00972718      -0.00230747      -0.00470600 </v>
   <v>       0.00972718      -0.00230747       0.00470600 </v>
   <v>       0.00972718       0.00230747      -0.00470600 </v>
   <v>       0.00972718      -0.00230747       0.00470600 </v>
   <v>       0.00972718       0.00230747      -0.00470600 </v>
   <v>      -0.00972718      -0.00230747      -0.00470600 </v>
   <v>      -0.00972718       0.00230747       0.00470600 </v>
   <v>       0.00000000       0.00000000       0.00425948 </v>
   <v>       0.00000000       0.00000000      -0.00425948 </v>
   <v>       0.00000000       0.00000000      -0.00425948 </v>
   <v>       0.00000000       0.00000000       0.00425948 </v>
   <v>       0.00000000       0.00000000       0.00000000 </v>
   <v>       0.00000000       0.00000000       0.00000000 </v>
   <v>       0.00000000       0.00000000       0.00000000 </v>
   <v>       0.00000000       0.00000000       0.00000000 </v>
   <v>       0.00000000       0.00000000       0.00000000 </v>
   <v>       0.00000000       0.00000000       0.00000000 </v>
   <v>       0.00000000       0.00000000      -0.00617713 </v>
   <v>       0.00000000       0.00000000       0.00617713 </v>
   <v>       0.00000000       0.00000000      -0.00617713 </v>
   <v>       0.00000000       0.00000000       0.00617713 </v>
   <v>       0.00000000       0.00000000       0.00979664 </v>
   <v>       0.00000000       0.00000000      -0.00979664 </v>
   <v>       0.00000000       0.00000000       0.00979664 </v>
   <v>       0.00000000       0.00000000      -0.00979664 </v>
   <v>      -0.00622788      -0.00623244      -0.01895106 </v>
   <v>      -0.00622788       0.00623244       0.01895106 </v>
   <v>      -0.00622788      -0.00623244      -0.01895106 </v>
   <v>      -0.00622788       0.00623244       0.01895106 </v>
   <v>       0.00622788       0.00623244      -0.01895106 </v>
[...]
       <r>   -16.6118     0.0000    32.0000 </r>
       <r>   -16.4585     0.0000    32.0000 </r>
       <r>   -16.3053     0.0000    32.0000 </r>
       <r>   -16.1520     0.0000    32.0000 </r>
       <r>   -15.9988     0.0000    32.0000 </r>
       <r>   -15.8456     0.0000    32.0000 </r>
       <r>   -15.6923     0.0000    32.0000 </r>
       <r>   -15.5391     0.0000    32.0000 </r>
       <r>   -15.3859     0.0000    32.0000 </r>
       <r>   -15.2326     0.0000    32.0000 </r>
       <r>   -15.0794     1.3198    32.2022 </r>
       <r>   -14.9261    24.2322    35.9155 </r>
       <r>   -14.7729    58.3441    44.8561 </r>
       <r>   -14.6197    44.8528    51.7293 </r>
       <r>   -14.4664    26.6796    55.8176 </r>
       <r>   -14.3132    24.3443    59.5481 </r>
       <r>   -14.1599    45.8287    66.5709 </r>
       <r>   -14.0067    95.5964    81.2199 </r>
       <r>   -13.8535   114.3498    98.7427 </r>
       <r>   -13.7002    85.0871   111.7813 </r>
       <r>   -13.5470    50.6851   119.5483 </r>
       <r>   -13.3938    15.9909   121.9987 </r>
       <r>   -13.2405     0.0085   122.0000 </r>
       <r>   -13.0873     0.0000   122.0000 </r>
       <r>   -12.9340     0.0006   122.0001 </r>
       <r>   -12.7808     8.1269   123.2454 </r>
       <r>   -12.6276   101.8206   138.8483 </r>
       <r>   -12.4743   114.5789   156.4062 </r>
       <r>   -12.3211    87.1669   169.7635 </r>
       <r>   -12.1678   106.1843   186.0351 </r>
       <r>   -12.0146    89.4102   199.7362 </r>
       <r>   -11.8614    81.6482   212.2478 </r>
       <r>   -11.7081    35.9085   217.7504 </r>
       <r>   -11.5549     1.6288   218.0000 </r>
       <r>   -11.4017     0.0000   218.0000 </r>
       <r>   -11.2484     0.0000   218.0000 </r>
       <r>   -11.0952     0.0000   218.0000 </r>
       <r>   -10.9419     0.0000   218.0000 </r>
       <r>   -10.7887     0.0000   218.0000 </r>
       <r>   -10.6355     0.0000   218.0000 </r>
       <r>   -10.4822     0.0000   218.0000 </r>
       <r>   -10.3290     0.0000   218.0000 </r>
       <r>   -10.1757     0.0000   218.0000 </r>
       <r>   -10.0225     0.0000   218.0000 </r>
       <r>    -9.8693     0.0000   218.0000 </r>
       <r>    -9.7160     0.0000   218.0000 </r>
       <r>    -9.5628     0.0000   218.0000 </r>
       <r>    -9.4095     0.0000   218.0000 </r>
       <r>    -9.2563     0.0000   218.0000 </r>
       <r>    -9.1031     0.0000   218.0000 </r>
       <r>    -8.9498     0.0000   218.0000 </r>
       <r>    -8.7966     0.0000   218.0000 </r>
       <r>    -8.6434     0.0000   218.0000 </r>
       <r>    -8.4901     0.0000   218.0000 </r>
       <r>    -8.3369     0.0000   218.0000 </r>
       <r>    -8.1836     0.0000   218.0000 </r>
       <r>    -8.0304     0.0000   218.0000 </r>
       <r>    -7.8772     0.0000   218.0000 </r>
       <r>    -7.7239     0.0000   218.0000 </r>
       <r>    -7.5707     0.0000   218.0000 </r>
       <r>    -7.4174     0.0000   218.0000 </r>
       <r>    -7.2642     0.0000   218.0000 </r>
       <r>    -7.1110     0.0000   218.0000 </r>
       <r>    -6.9577     0.0000   218.0000 </r>
       <r>    -6.8045     0.0000   218.0000 </r>
       <r>    -6.6513     0.0000   218.0000 </r>
       <r>    -6.4980     0.0000   218.0000 </r>
       <r>    -6.3448     0.0000   218.0000 </r>
       <r>    -6.1915     0.0000   218.0000 </r>
       <r>    -6.0383     0.0000   218.0000 </r>
       <r>    -5.8851     0.0000   218.0000 </r>
       <r>    -5.7318     0.0000   218.0000 </r>
       <r>    -5.5786     0.0000   218.0000 </r>
       <r>    -5.4253     0.0000   218.0000 </r>
       <r>    -5.2721     0.0000   218.0000 </r>
       <r>    -5.1189     0.0000   218.0000 </r>
       <r>    -4.9656     0.0000   218.0000 </r>
       <r>    -4.8124     0.0000   218.0000 </r>
       <r>    -4.6592     0.0000   218.0000 </r>
       <r>    -4.5059     0.0000   218.0000 </r>
       <r>    -4.3527     0.0000   218.0000 </r>
       <r>    -4.1994     0.0000   218.0000 </r>
       <r>    -4.0462     0.0000   218.0000 </r>
       <r>    -3.8930     0.0000   218.0000 </r>
       <r>    -3.7397     0.0000   218.0000 </r>
       <r>    -3.5865     0.0000   218.0000 </r>
       <r>    -3.4332     0.0000   218.0000 </r>
       <r>    -3.2800     0.0000   218.0000 </r>
       <r>    -3.1268     0.0000   218.0000 </r>
       <r>    -2.9735     0.0000   218.0000 </r>
       <r>    -2.8203     0.0000   218.0000 </r>
       <r>    -2.6670     0.0000   218.0000 </r>
       <r>    -2.5138     0.0000   218.0000 </r>
       <r>    -2.3606     0.3525   218.0540 </r>
       <r>    -2.2073    12.9826   220.0435 </r>
       <r>    -2.0541    32.0515   224.9550 </r>
       <r>    -1.9009    31.5961   229.7967 </r>
       <r>    -1.7476    26.9499   233.9265 </r>
       <r>    -1.5944    40.8464   240.1857 </r>
       <r>    -1.4411    38.8052   246.1322 </r>
       <r>    -1.2879    52.3547   254.1550 </r>
       <r>    -1.1347    85.6728   267.2833 </r>
       <r>    -0.9814    75.5129   278.8548 </r>
       <r>    -0.8282    58.8447   287.8721 </r>
       <r>    -0.6749    84.3801   300.8024 </r>
       <r>    -0.5217   106.8061   317.1692 </r>
       <r>    -0.3685   113.1281   334.5048 </r>
       <r>    -0.2152    67.2698   344.8131 </r>
       <r>    -0.0620    41.6992   351.2031 </r>
       <r>     0.0912    48.8476   358.6884 </r>
       <r>     0.2445    42.9437   365.2690 </r>
       <r>     0.3977    50.5276   373.0118 </r>
       <r>     0.5510    58.1659   381.9251 </r>
       <r>     0.7042    69.9921   392.6506 </r>
       <r>     0.8574    48.1381   400.0272 </r>
       <r>     1.0107    57.7676   408.8794 </r>
       <r>     1.1639    51.2022   416.7256 </r>
       <r>     1.3172    59.1346   425.7873 </r>
       <r>     1.4704    70.8682   436.6470 </r>
       <r>     1.6236    90.6849   450.5435 </r>
       <r>     1.7769    84.1841   463.4437 </r>
       <r>     1.9301    58.4799   472.4051 </r>
       <r>     2.0833    54.4326   480.7463 </r>
       <r>     2.2366    21.4553   484.0341 </r>
       <r>     2.3898    12.5063   485.9505 </r>
       <r>     2.5431    12.5652   487.8760 </r>
       <r>     2.6963     0.8094   488.0000 </r>
       <r>     2.8495     0.0000   488.0000 </r>
       <r>     3.0028     0.0000   488.0000 </r>
       <r>     3.1560     0.0000   488.0000 </r>
       <r>     3.3093     0.0000   488.0000 </r>
       <r>     3.4625     0.0000   488.0000 </r>
       <r>     3.6157     0.0000   488.0000 </r>
       <r>     3.7690     0.0000   488.0000 </r>
       <r>     3.9222     0.0000   488.0000 </r>
       <r>     4.0755     0.0000   488.0000 </r>
       <r>     4.2287     0.0000   488.0000 </r>
       <r>     4.3819     3.2216   488.4937 </r>
       <r>     4.5352    17.4676   491.1704 </r>
       <r>     4.6884    47.3447   498.4254 </r>
       <r>     4.8416    46.9865   505.6256 </r>
       <r>     4.9949    43.7717   512.3331 </r>
       <r>     5.1481    35.0769   517.7082 </r>
       <r>     5.3014    67.7146   528.0847 </r>
       <r>     5.4546    74.7844   539.5446 </r>
       <r>     5.6078    52.6357   547.6104 </r>
       <r>     5.7611    51.3364   555.4771 </r>
       <r>     5.9143    75.0049   566.9708 </r>
       <r>     6.0676    89.1122   580.6262 </r>
       <r>     6.2208    75.9520   592.2650 </r>
       <r>     6.3740    85.7847   605.4105 </r>
       <r>     6.5273    29.6698   609.9571 </r>
       <r>     6.6805     6.4373   610.9435 </r>
       <r>     6.8337    19.4522   613.9244 </r>
       <r>     6.9870    13.5138   615.9952 </r>
       <r>     7.1402    14.0292   618.1450 </r>
       <r>     7.2935    18.8880   621.0394 </r>
       <r>     7.4467    16.4029   623.5530 </r>
       <r>     7.5999    21.2098   626.8031 </r>
       <r>     7.7532    14.3876   629.0079 </r>
       <r>     7.9064    24.8338   632.8134 </r>
       <r>     8.0597    24.5184   636.5705 </r>
       <r>     8.2129    24.5353   640.3303 </r>
       <r>     8.3661    16.6060   642.8750 </r>
       <r>     8.5194    25.9621   646.8534 </r>
       <r>     8.6726    37.2958   652.5685 </r>
       <r>     8.8258    27.1831   656.7340 </r>
       <r>     8.9791    30.9035   661.4696 </r>
       <r>     9.1323    38.7896   667.4137 </r>
       <r>     9.2856    33.0038   672.4711 </r>
       <r>     9.4388    39.2538   678.4863 </r>
       <r>     9.5920    49.4594   686.0654 </r>
       <r>     9.7453    48.1987   693.4513 </r>
       <r>     9.8985    59.5836   702.5818 </r>
       <r>    10.0518    72.3146   713.6632 </r>
       <r>    10.2050    75.7420   725.2698 </r>
       <r>    10.3582    54.2216   733.5787 </r>
       <r>    10.5115    61.9037   743.0647 </r>
       <r>    10.6647    49.7145   750.6829 </r>
       <r>    10.8180    49.2902   758.2361 </r>
       <r>    10.9712    39.6539   764.3126 </r>
       <r>    11.1244    24.0408   767.9965 </r>
       <r>    11.2777     0.0225   768.0000 </r>
       <r>    11.4309     0.0000   768.0000 </r>
       <r>    11.5841     0.0000   768.0000 </r>
       <r>    11.7374     0.0000   768.0000 </r>
       <r>    11.8906     0.0000   768.0000 </r>
       <r>    12.0439     0.0000   768.0000 </r>
       <r>    12.1971     0.0000   768.0000 </r>
       <r>    12.3503     0.0000   768.0000 </r>
       <r>    12.5036     0.0000   768.0000 </r>
       <r>    12.6568     0.0000   768.0000 </r>
       <r>    12.8101     0.0000   768.0000 </r>
       <r>    12.9633     0.0000   768.0000 </r>
       <r>    13.1165     0.0000   768.0000 </r>
      </set>
     </set>
    </array>
   </total>
  </dos>
 </calculation>
 <structure name="finalpos" >
  <crystal>
   <varray name="basis" >
    <v>      11.18323691       0.00000000       0.00000000 </v>
    <v>       0.00000000      11.17254275       0.00000000 </v>
    <v>       0.00000000       0.00000000      15.96069202 </v>
   </varray>
   <i name="volume">   1994.21173681 </i>
   <varray name="rec_basis" >
    <v>       0.08941955       0.00000000       0.00000000 </v>
    <v>       0.00000000       0.08950514       0.00000000 </v>
    <v>       0.00000000       0.00000000       0.06265392 </v>
   </varray>
  </crystal>
  <varray name="positions" >
   <v>      -0.00000000       0.25000000       0.12500000 </v>
   <v>      -0.00000000       0.25000000       0.62500000 </v>
   <v>      -0.00000000       0.75000000       0.12500000 </v>
   <v>      -0.00000000       0.75000000       0.62500000 </v>
   <v>       0.50000000       0.25000000       0.12500000 </v>
   <v>       0.50000000       0.25000000       0.62500000 </v>
   <v>       0.50000000       0.75000000       0.12500000 </v>
   <v>       0.50000000       0.75000000       0.62500000 </v>
   <v>      -0.00000000       0.25000000       0.37372361 </v>
   <v>      -0.00000000       0.25000000       0.87627639 </v>
   <v>      -0.00000000       0.75000000       0.37372361 </v>
   <v>      -0.00000000       0.75000000       0.87627639 </v>
   <v>       0.50000000       0.25000000       0.37130926 </v>
   <v>       0.50000000       0.25000000       0.87869074 </v>
   <v>       0.50000000       0.75000000       0.37130926 </v>
   <v>       0.50000000       0.75000000       0.87869074 </v>
   <v>       0.24953139      -0.00000000       0.12500000 </v>
   <v>       0.24179932      -0.00000000       0.62500000 </v>
   <v>       0.24953139       0.50000000       0.12500000 </v>
   <v>       0.24179932       0.50000000       0.62500000 </v>
   <v>       0.75046861      -0.00000000       0.12500000 </v>
   <v>       0.75820068      -0.00000000       0.62500000 </v>
   <v>       0.75046861       0.50000000       0.12500000 </v>
   <v>       0.75820068       0.50000000       0.62500000 </v>
   <v>       0.24799147       0.99912554       0.37285190 </v>
   <v>       0.24799147       0.00087446       0.87714810 </v>
   <v>       0.24799147       0.49912554       0.37285190 </v>
   <v>       0.24799147       0.50087446       0.87714810 </v>
   <v>       0.75200853       0.00087446       0.37285190 </v>
   <v>       0.75200853       0.99912554       0.87714810 </v>
   <v>       0.75200853       0.50087446       0.37285190 </v>
   <v>       0.75200853       0.49912554       0.87714810 </v>
   <v>      -0.00000000      -0.00000000       0.00311575 </v>
   <v>      -0.00000000      -0.00000000       0.49775563 </v>
   <v>      -0.00000000       0.50000000       0.00311575 </v>
   <v>      -0.00000000       0.50000000       0.49775563 </v>
   <v>       0.50000000      -0.00000000       0.00501250 </v>
   <v>       0.50000000       0.50000000       0.00501250 </v>
   <v>       0.25381406       0.24980252       0.50290177 </v>
   <v>       0.25381406       0.74980252       0.50290177 </v>
   <v>       0.74618594       0.25019748       0.50290177 </v>
   <v>       0.74618594       0.75019748       0.50290177 </v>
   <v>       0.25381406       0.25019748       0.74709823 </v>
   <v>       0.25381406       0.75019748       0.74709823 </v>
   <v>       0.74618594       0.24980252       0.74709823 </v>
   <v>       0.74618594       0.74980252       0.74709823 </v>
   <v>      -0.00000000      -0.00000000       0.24688425 </v>
   <v>      -0.00000000      -0.00000000       0.75224437 </v>
   <v>      -0.00000000       0.50000000       0.24688425 </v>
   <v>      -0.00000000       0.50000000       0.75224437 </v>
   <v>       0.50000000      -0.00000000       0.24498750 </v>
   <v>       0.50000000       0.50000000       0.24498750 </v>
   <v>       0.74871309       0.24995966       0.26127017 </v>
   <v>       0.74871309       0.25004034       0.98872983 </v>
   <v>       0.25128691       0.75004034       0.26127017 </v>
   <v>       0.25128691       0.74995966       0.98872983 </v>
   <v>       0.25128691       0.25004034       0.26127017 </v>
   <v>       0.25128691       0.24995966       0.98872983 </v>
   <v>       0.74871309       0.75004034       0.98872983 </v>
   <v>       0.74871309       0.74995966       0.26127017 </v>
   <v>       0.50000000      -0.00000000       0.76048982 </v>
   <v>       0.50000000      -0.00000000       0.48951018 </v>
   <v>       0.50000000       0.50000000       0.48951018 </v>
   <v>       0.50000000       0.50000000       0.76048982 </v>
   <v>      -0.00000000      -0.00000000       0.12500000 </v>
   <v>      -0.00000000      -0.00000000       0.62500000 </v>
   <v>      -0.00000000       0.50000000       0.12500000 </v>
   <v>      -0.00000000       0.50000000       0.62500000 </v>
   <v>       0.50000000      -0.00000000       0.12500000 </v>
   <v>       0.50000000       0.50000000       0.12500000 </v>
   <v>      -0.00000000      -0.00000000       0.37083727 </v>
   <v>      -0.00000000      -0.00000000       0.87916273 </v>
   <v>      -0.00000000       0.50000000       0.37083727 </v>
   <v>      -0.00000000       0.50000000       0.87916273 </v>
   <v>       0.50000000      -0.00000000       0.37027261 </v>
   <v>       0.50000000      -0.00000000       0.87972739 </v>
   <v>       0.50000000       0.50000000       0.37027261 </v>
   <v>       0.50000000       0.50000000       0.87972739 </v>
   <v>       0.26248059       0.25210597       0.37946262 </v>
   <v>       0.26248059       0.24789403       0.87053738 </v>
   <v>       0.26248059       0.75210597       0.37946262 </v>
   <v>       0.26248059       0.74789403       0.87053738 </v>
   <v>       0.73751941       0.24789403       0.37946262 </v>
   <v>       0.73751941       0.25210597       0.87053738 </v>
   <v>       0.73751941       0.74789403       0.37946262 </v>
   <v>       0.73751941       0.75210597       0.87053738 </v>
   <v>       0.23542405       0.25000000       0.62500000 </v>
   <v>       0.23542405       0.75000000       0.62500000 </v>
   <v>       0.76457595       0.25000000       0.62500000 </v>
   <v>       0.76457595       0.75000000       0.62500000 </v>
   <v>       0.11967524       0.13523709       0.24374012 </v>
   <v>       0.36508429       0.11899172       0.24101307 </v>
   <v>       0.61877127       0.13504660       0.24024758 </v>
   <v>       0.86460800       0.11947658       0.24290530 </v>
   <v>       0.13539200       0.38052342       0.24290530 </v>
   <v>       0.38122873       0.36495340       0.24024758 </v>
   <v>       0.63491571       0.38100828       0.24101307 </v>
   <v>       0.88032476       0.36476291       0.24374012 </v>
   <v>       0.11967524       0.63523709       0.24374012 </v>
   <v>       0.36508429       0.61899172       0.24101307 </v>
   <v>       0.61877127       0.63504660       0.24024758 </v>
   <v>       0.86460800       0.61947658       0.24290530 </v>
   <v>       0.13539200       0.88052342       0.24290530 </v>
   <v>       0.38122873       0.86495340       0.24024758 </v>
   <v>       0.63491571       0.88100828       0.24101307 </v>
   <v>       0.88032476       0.86476291       0.24374012 </v>
   <v>       0.13770067       0.11157559       0.49561404 </v>
   <v>       0.38792483       0.13326745       0.51087820 </v>
   <v>       0.63368072       0.11207993       0.51217355 </v>
   <v>       0.88768259       0.13763256       0.49611611 </v>
   <v>       0.11231741       0.36236744       0.49611611 </v>
   <v>       0.36631928       0.38792007       0.51217355 </v>
   <v>       0.61207517       0.36673255       0.51087820 </v>
   <v>       0.86229933       0.38842441       0.49561404 </v>
   <v>       0.13770067       0.61157559       0.49561404 </v>
   <v>       0.38792483       0.63326745       0.51087820 </v>
   <v>       0.63368072       0.61207993       0.51217355 </v>
   <v>       0.88768259       0.63763256       0.49611611 </v>
   <v>       0.11231741       0.86236744       0.49611611 </v>
   <v>       0.36631928       0.88792007       0.51217355 </v>
   <v>       0.61207517       0.86673255       0.51087820 </v>
   <v>       0.86229933       0.88842441       0.49561404 </v>
   <v>       0.11231741       0.13763256       0.75388389 </v>
   <v>       0.36631928       0.11207993       0.73782645 </v>
   <v>       0.61207517       0.13326745       0.73912180 </v>
   <v>       0.86229933       0.11157559       0.75438596 </v>
   <v>       0.13770067       0.38842441       0.75438596 </v>
   <v>       0.38792483       0.36673255       0.73912180 </v>
   <v>       0.63368072       0.38792007       0.73782645 </v>
   <v>       0.88768259       0.36236744       0.75388389 </v>
   <v>       0.11231741       0.63763256       0.75388389 </v>
   <v>       0.36631928       0.61207993       0.73782645 </v>
   <v>       0.61207517       0.63326745       0.73912180 </v>
   <v>       0.86229933       0.61157559       0.75438596 </v>
   <v>       0.13770067       0.88842441       0.75438596 </v>
   <v>       0.38792483       0.86673255       0.73912180 </v>
   <v>       0.63368072       0.88792007       0.73782645 </v>
   <v>       0.88768259       0.86236744       0.75388389 </v>
   <v>       0.13539200       0.11947658       0.00709470 </v>
   <v>       0.38122873       0.13504660       0.00975242 </v>
   <v>       0.63491571       0.11899172       0.00898693 </v>
   <v>       0.88032476       0.13523709       0.00625988 </v>
   <v>       0.11967524       0.36476291       0.00625988 </v>
   <v>       0.36508429       0.38100828       0.00898693 </v>
   <v>       0.61877127       0.36495340       0.00975242 </v>
   <v>       0.86460800       0.38052342       0.00709470 </v>
   <v>       0.13539200       0.61947658       0.00709470 </v>
   <v>       0.38122873       0.63504660       0.00975242 </v>
   <v>       0.63491571       0.61899172       0.00898693 </v>
   <v>       0.88032476       0.63523709       0.00625988 </v>
   <v>       0.11967524       0.86476291       0.00625988 </v>
   <v>       0.36508429       0.88100828       0.00898693 </v>
   <v>       0.61877127       0.86495340       0.00975242 </v>
   <v>       0.86460800       0.88052342       0.00709470 </v>
  </varray>
 </structure>
</modeling>
