       N       E                     dE             d eps       ncg     rms          rms(c)
DAV:   1    -0.108847100811E+04   -0.10885E+04   -0.36376E-02 13608   0.448E-01    0.339E-02
RMM:   2    -0.108847100701E+04    0.10950E-05   -0.38514E-05  6869   0.992E-03    0.631E-02
RMM:   3    -0.108847100721E+04   -0.19510E-06   -0.11650E-05  6542   0.637E-03    0.577E-03
RMM:   4    -0.108847100754E+04   -0.33098E-06   -0.48227E-06  4014   0.257E-03    0.431E-03
RMM:   5    -0.108847100777E+04   -0.23111E-06   -0.26447E-06  3905   0.287E-03    0.640E-03
RMM:   6    -0.108847100792E+04   -0.14958E-06   -0.16079E-06  3019   0.218E-03    0.155E-03
RMM:   7    -0.108847100798E+04   -0.59285E-07   -0.96137E-07  2647   0.222E-03    0.152E-03
RMM:   8    -0.108847100803E+04   -0.49928E-07   -0.53475E-07  2229   0.194E-03
   1 F= -.10884710E+04 E0= -.10884710E+04  d E =-.108847E+04  mag=    60.0000
       N       E                     dE             d eps       ncg     rms          rms(c)
DAV:   1    -0.108847089096E+04    0.11702E-03   -0.55616E-01 12704   0.871E-01    0.338E-01
RMM:   2    -0.108847266503E+04   -0.17741E-02   -0.16133E-02 12350   0.174E-01    0.247E-01
RMM:   3    -0.108847275427E+04   -0.89242E-04   -0.92893E-04 11815   0.534E-02    0.142E-01
RMM:   4    -0.108847266853E+04    0.85747E-04   -0.19770E-04  7992   0.190E-02    0.817E-02
RMM:   5    -0.108847264837E+04    0.20152E-04   -0.10089E-04  7368   0.134E-02    0.476E-02
RMM:   6    -0.108847264930E+04   -0.92560E-06   -0.25930E-05  7115   0.922E-03    0.287E-02
RMM:   7    -0.108847264928E+04    0.21275E-07   -0.11002E-05  6720   0.437E-03    0.122E-02
RMM:   8    -0.108847264876E+04    0.51378E-06   -0.54072E-06  6119   0.428E-03
   2 F= -.10884726E+04 E0= -.10884726E+04  d E =-.164073E-02  mag=    60.0000
       N       E                     dE             d eps       ncg     rms          rms(c)
DAV:   1    -0.108847263482E+04    0.14456E-04   -0.17552E-02 13192   0.155E-01    0.606E-02
RMM:   2    -0.108847269015E+04   -0.55331E-04   -0.50623E-04 10641   0.310E-02    0.447E-02
RMM:   3    -0.108847269340E+04   -0.32513E-05   -0.29325E-05  6881   0.106E-02    0.274E-02
RMM:   4    -0.108847269160E+04    0.18075E-05   -0.10180E-05  6576   0.466E-03    0.162E-02
RMM:   5    -0.108847269040E+04    0.11926E-05   -0.54846E-06  5688   0.345E-03    0.690E-03
RMM:   6    -0.108847269040E+04    0.60390E-08   -0.14213E-06  3571   0.243E-03    0.345E-03
RMM:   7    -0.108847269038E+04    0.20038E-07   -0.34865E-07  2400   0.199E-03    0.158E-03
RMM:   8    -0.108847269031E+04    0.72090E-07   -0.18494E-07  2127   0.189E-03
   3 F= -.10884727E+04 E0= -.10884727E+04  d E =-.168228E-02  mag=    60.0000
       N       E                     dE             d eps       ncg     rms          rms(c)
DAV:   1    -0.108847263022E+04    0.60160E-04   -0.44003E-01 12736   0.780E-01    0.231E-01
RMM:   2    -0.108847387374E+04   -0.12435E-02   -0.11695E-02 12425   0.146E-01    0.147E-01
RMM:   3    -0.108847392543E+04   -0.51688E-04   -0.65085E-04 10417   0.460E-02    0.868E-02
RMM:   4    -0.108847388806E+04    0.37363E-04   -0.12842E-04  7281   0.155E-02    0.459E-02
RMM:   5    -0.108847388346E+04    0.46051E-05   -0.52515E-05  7151   0.102E-02    0.242E-02
RMM:   6    -0.108847388545E+04   -0.19981E-05   -0.17158E-05  6942   0.645E-03    0.145E-02
RMM:   7    -0.108847388639E+04   -0.93103E-06   -0.88172E-06  6346   0.439E-03    0.883E-03
RMM:   8    -0.108847388698E+04   -0.59453E-06   -0.47388E-06  5195   0.351E-03
   4 F= -.10884739E+04 E0= -.10884739E+04  d E =-.119668E-02  mag=    60.0000
       N       E                     dE             d eps       ncg     rms          rms(c)
DAV:   1    -0.108847298548E+04    0.90091E-03   -0.47460E-01 12704   0.810E-01    0.240E-01
RMM:   2    -0.108847432812E+04   -0.13426E-02   -0.12636E-02 12431   0.151E-01    0.153E-01
RMM:   3    -0.108847438266E+04   -0.54539E-04   -0.71301E-04 10755   0.479E-02    0.901E-02
RMM:   4    -0.108847434175E+04    0.40914E-04   -0.14071E-04  7334   0.160E-02    0.473E-02
RMM:   5    -0.108847433714E+04    0.46027E-05   -0.57408E-05  7202   0.103E-02    0.256E-02
RMM:   6    -0.108847433928E+04   -0.21331E-05   -0.18741E-05  7022   0.691E-03    0.159E-02
RMM:   7    -0.108847434037E+04   -0.10908E-05   -0.10296E-05  6576   0.449E-03    0.961E-03
RMM:   8    -0.108847434104E+04   -0.66905E-06   -0.56218E-06  5640   0.397E-03
   5 F= -.10884743E+04 E0= -.10884743E+04  d E =-.165073E-02  mag=    60.0000
       N       E                     dE             d eps       ncg     rms          rms(c)
DAV:   1    -0.108847403911E+04    0.30126E-03   -0.46853E-01 12800   0.800E-01    0.233E-01
RMM:   2    -0.108847537220E+04   -0.13331E-02   -0.12143E-02 12482   0.147E-01    0.150E-01
RMM:   3    -0.108847543349E+04   -0.61288E-04   -0.68007E-04 10588   0.463E-02    0.852E-02
RMM:   4    -0.108847540135E+04    0.32141E-04   -0.11445E-04  7263   0.150E-02    0.497E-02
RMM:   5    -0.108847539412E+04    0.72312E-05   -0.61556E-05  7131   0.105E-02    0.193E-02
RMM:   6    -0.108847539685E+04   -0.27333E-05   -0.18259E-05  6994   0.671E-03    0.117E-02
RMM:   7    -0.108847539798E+04   -0.11256E-05   -0.95065E-06  6349   0.429E-03    0.695E-03
RMM:   8    -0.108847539871E+04   -0.73774E-06   -0.50209E-06  5180   0.372E-03
   6 F= -.10884754E+04 E0= -.10884754E+04  d E =-.105768E-02  mag=    60.0000
       N       E                     dE             d eps       ncg     rms          rms(c)
DAV:   1    -0.108847335613E+04    0.20418E-02   -0.87914E-01 12720   0.110E+00    0.319E-01
RMM:   2    -0.108847585333E+04   -0.24972E-02   -0.22750E-02 12465   0.202E-01    0.206E-01
RMM:   3    -0.108847598033E+04   -0.12699E-03   -0.13660E-03 12230   0.635E-02    0.116E-01
RMM:   4    -0.108847591482E+04    0.65508E-04   -0.20852E-04  7926   0.192E-02    0.678E-02
RMM:   5    -0.108847589850E+04    0.16316E-04   -0.11091E-04  7270   0.135E-02    0.269E-02
RMM:   6    -0.108847590234E+04   -0.38435E-05   -0.30031E-05  7127   0.936E-03    0.277E-02
RMM:   7    -0.108847590403E+04   -0.16857E-05   -0.15883E-05  6982   0.539E-03    0.117E-02
RMM:   8    -0.108847590508E+04   -0.10475E-05   -0.87830E-06  6646   0.516E-03
   7 F= -.10884759E+04 E0= -.10884759E+04  d E =-.156404E-02  mag=    60.0000
       N       E                     dE             d eps       ncg     rms          rms(c)
DAV:   1    -0.108847533091E+04    0.57312E-03   -0.58359E-01 12784   0.891E-01    0.232E-01
RMM:   2    -0.108847685636E+04   -0.15254E-02   -0.14969E-02 12492   0.162E-01    0.140E-01
RMM:   3    -0.108847690888E+04   -0.52522E-04   -0.86205E-04 11214   0.519E-02    0.789E-02
RMM:   4    -0.108847687298E+04    0.35894E-04   -0.13239E-04  7277   0.162E-02    0.490E-02
RMM:   5    -0.108847686215E+04    0.10835E-04   -0.65886E-05  7128   0.110E-02    0.236E-02
RMM:   6    -0.108847686385E+04   -0.17035E-05   -0.21984E-05  7031   0.727E-03    0.128E-02
RMM:   7    -0.108847686452E+04   -0.66868E-06   -0.11701E-05  6682   0.477E-03    0.901E-03
RMM:   8    -0.108847686427E+04    0.25496E-06   -0.63457E-06  5623   0.412E-03
   8 F= -.10884769E+04 E0= -.10884769E+04  d E =-.959189E-03  mag=    60.0000
       N       E                     dE             d eps       ncg     rms          rms(c)
DAV:   1    -0.108847356950E+04    0.32950E-02   -0.14937E+00 12512   0.143E+00    0.371E-01
RMM:   2    -0.108847746464E+04   -0.38951E-02   -0.38159E-02 12485   0.260E-01    0.224E-01
RMM:   3    -0.108847760800E+04   -0.14336E-03   -0.22492E-03 12674   0.832E-02    0.126E-01
RMM:   4    -0.108847751930E+04    0.88703E-04   -0.39214E-04  9734   0.244E-02    0.750E-02
RMM:   5    -0.108847748576E+04    0.33541E-04   -0.15051E-04  7345   0.165E-02    0.362E-02
RMM:   6    -0.108847748910E+04   -0.33419E-05   -0.44596E-05  7154   0.114E-02    0.380E-02
RMM:   7    -0.108847749089E+04   -0.17933E-05   -0.22908E-05  7087   0.689E-03    0.146E-02
RMM:   8    -0.108847749071E+04    0.18680E-06   -0.12881E-05  6946   0.613E-03
   9 F= -.10884775E+04 E0= -.10884775E+04  d E =-.158563E-02  mag=    60.0000
       N       E                     dE             d eps       ncg     rms          rms(c)
DAV:   1    -0.108847681225E+04    0.67864E-03   -0.66365E-01 12704   0.946E-01    0.230E-01
RMM:   2    -0.108847857960E+04   -0.17674E-02   -0.16697E-02 12705   0.169E-01    0.140E-01
RMM:   3    -0.108847863236E+04   -0.52752E-04   -0.87403E-04 11040   0.518E-02    0.780E-02
RMM:   4    -0.108847859701E+04    0.35348E-04   -0.12983E-04  7325   0.162E-02    0.480E-02
RMM:   5    -0.108847858692E+04    0.10085E-04   -0.78317E-05  7149   0.115E-02    0.195E-02
RMM:   6    -0.108847859023E+04   -0.33107E-05   -0.22442E-05  6969   0.732E-03    0.107E-02
RMM:   7    -0.108847859146E+04   -0.12222E-05   -0.11911E-05  6407   0.453E-03    0.807E-03
RMM:   8    -0.108847859214E+04   -0.68039E-06   -0.64389E-06  5560   0.413E-03
  10 F= -.10884786E+04 E0= -.10884786E+04  d E =-.110143E-02  mag=    60.0000
       N       E                     dE             d eps       ncg     rms          rms(c)
DAV:   1    -0.108846992974E+04    0.86617E-02   -0.37250E+00 12552   0.224E+00    0.543E-01
RMM:   2    -0.108847977573E+04   -0.98460E-02   -0.93009E-02 12695   0.400E-01    0.332E-01
RMM:   3    -0.108848008594E+04   -0.31021E-03   -0.49041E-03 13075   0.123E-01    0.184E-01
RMM:   4    -0.108847989961E+04    0.18632E-03   -0.89875E-04 12993   0.353E-02    0.110E-01
RMM:   5    -0.108847983364E+04    0.65974E-04   -0.42153E-04 10022   0.214E-02    0.365E-02
RMM:   6    -0.108847983935E+04   -0.57113E-05   -0.59118E-05  7263   0.122E-02    0.283E-02
RMM:   7    -0.108847984247E+04   -0.31182E-05   -0.31037E-05  7147   0.756E-03    0.182E-02
RMM:   8    -0.108847984419E+04   -0.17268E-05   -0.19279E-05  7025   0.682E-03
  11 F= -.10884798E+04 E0= -.10884798E+04  d E =-.235349E-02  mag=    60.0000
       N       E                     dE             d eps       ncg     rms          rms(c)
DAV:   1    -0.108847779411E+04    0.20484E-02   -0.13589E+00 12504   0.135E+00    0.321E-01
RMM:   2    -0.108848127716E+04   -0.34830E-02   -0.34225E-02 12675   0.243E-01    0.201E-01
RMM:   3    -0.108848137195E+04   -0.94795E-04   -0.18856E-03 12520   0.742E-02    0.118E-01
RMM:   4    -0.108848129849E+04    0.73465E-04   -0.29046E-04  8878   0.213E-02    0.730E-02
RMM:   5    -0.108848126140E+04    0.37091E-04   -0.16652E-04  7447   0.160E-02    0.278E-02
RMM:   6    -0.108848126618E+04   -0.47867E-05   -0.44351E-05  7126   0.111E-02    0.357E-02
RMM:   7    -0.108848126833E+04   -0.21516E-05   -0.21642E-05  7004   0.675E-03    0.129E-02
RMM:   8    -0.108848126942E+04   -0.10885E-05   -0.12369E-05  6726   0.592E-03
  12 F= -.10884813E+04 E0= -.10884813E+04  d E =-.142523E-02  mag=    60.0000
