       N       E                     dE             d eps       ncg     rms          rms(c)
DAV:   1    -0.108831414202E+04   -0.10883E+04   -0.20202E-02 13520   0.333E-01    0.185E-02
RMM:   2    -0.108831414262E+04   -0.60169E-06   -0.17734E-05  6796   0.718E-03    0.325E-02
RMM:   3    -0.108831414300E+04   -0.38174E-06   -0.65215E-06  6352   0.474E-03    0.406E-03
RMM:   4    -0.108831414343E+04   -0.42713E-06   -0.33685E-06  3881   0.242E-03    0.415E-03
RMM:   5    -0.108831414369E+04   -0.26272E-06   -0.18449E-06  3569   0.257E-03    0.379E-03
RMM:   6    -0.108831414399E+04   -0.30018E-06   -0.12618E-06  2921   0.208E-03    0.165E-03
RMM:   7    -0.108831414418E+04   -0.19198E-06   -0.71233E-07  2678   0.207E-03    0.151E-03
RMM:   8    -0.108831414438E+04   -0.20083E-06   -0.47985E-07  2403   0.194E-03
   1 F= -.10883141E+04 E0= -.10883141E+04  d E =-.108831E+04  mag=    58.0000
       N       E                     dE             d eps       ncg     rms          rms(c)
DAV:   1    -0.108831394801E+04    0.19617E-03   -0.38326E-01 12448   0.726E-01    0.297E-01
RMM:   2    -0.108831528662E+04   -0.13386E-02   -0.10986E-02 12394   0.145E-01    0.208E-01
RMM:   3    -0.108831537575E+04   -0.89129E-04   -0.57381E-04 10500   0.442E-02    0.116E-01
RMM:   4    -0.108831531405E+04    0.61698E-04   -0.14955E-04  7561   0.168E-02    0.639E-02
RMM:   5    -0.108831530324E+04    0.10810E-04   -0.70833E-05  7247   0.117E-02    0.331E-02
RMM:   6    -0.108831530551E+04   -0.22710E-05   -0.18267E-05  7076   0.745E-03    0.205E-02
RMM:   7    -0.108831530653E+04   -0.10135E-05   -0.83200E-06  6464   0.428E-03    0.111E-02
RMM:   8    -0.108831530739E+04   -0.86799E-06   -0.43949E-06  5728   0.360E-03
   2 F= -.10883153E+04 E0= -.10883153E+04  d E =-.116301E-02  mag=    58.0000
       N       E                     dE             d eps       ncg     rms          rms(c)
DAV:   1    -0.108831528691E+04    0.19617E-04   -0.11861E-02 13096   0.128E-01    0.527E-02
RMM:   2    -0.108831532614E+04   -0.39232E-04   -0.31383E-04  8858   0.254E-02    0.422E-02
RMM:   3    -0.108831533165E+04   -0.55094E-05   -0.30610E-05  6768   0.110E-02    0.232E-02
RMM:   4    -0.108831533117E+04    0.48379E-06   -0.95625E-06  6290   0.457E-03    0.199E-02
RMM:   5    -0.108831533091E+04    0.25106E-06   -0.50866E-06  5758   0.382E-03    0.859E-03
RMM:   6    -0.108831533119E+04   -0.27068E-06   -0.16788E-06  3482   0.225E-03    0.351E-03
RMM:   7    -0.108831533133E+04   -0.14609E-06   -0.62213E-07  2838   0.223E-03    0.236E-03
RMM:   8    -0.108831533143E+04   -0.10138E-06   -0.96007E-08  1776   0.187E-03
   3 F= -.10883153E+04 E0= -.10883153E+04  d E =-.118705E-02  mag=    58.0000
       N       E                     dE             d eps       ncg     rms          rms(c)
DAV:   1    -0.108831537947E+04   -0.48142E-04   -0.28280E-01 12480   0.630E-01    0.188E-01
RMM:   2    -0.108831617318E+04   -0.79371E-03   -0.75026E-03 12431   0.117E-01    0.122E-01
RMM:   3    -0.108831620638E+04   -0.33200E-04   -0.38071E-04  9424   0.376E-02    0.730E-02
RMM:   4    -0.108831618425E+04    0.22131E-04   -0.90082E-05  7175   0.133E-02    0.408E-02
RMM:   5    -0.108831617923E+04    0.50213E-05   -0.40440E-05  7067   0.928E-03    0.229E-02
RMM:   6    -0.108831618062E+04   -0.13901E-05   -0.14373E-05  6854   0.609E-03    0.144E-02
RMM:   7    -0.108831618124E+04   -0.61771E-06   -0.65643E-06  5980   0.400E-03    0.605E-03
RMM:   8    -0.108831618152E+04   -0.28010E-06   -0.36068E-06  4834   0.312E-03
   4 F= -.10883162E+04 E0= -.10883162E+04  d E =-.850083E-03  mag=    58.0000
