<?xml version="1.0" encoding="ISO-8859-1"?>
<modeling>
 <generator>
  <i name="program" type="string">vasp </i>
  <i name="version" type="string">5.4.1  </i>
  <i name="subversion" type="string">05Feb16 (build Jan 25 2017 20:16:33) complex                          parallel </i>
  <i name="platform" type="string">BWXE6 </i>
  <i name="date" type="string">2019 06 27 </i>
  <i name="time" type="string">09:58:38 </i>
 </generator>
 <incar>
  <i type="string" name="SYSTEM"> STF</i>
  <i type="string" name="PREC">normal</i>
  <i type="string" name="ALGO"> Fast</i>
  <i type="int" name="ISPIN">     2</i>
  <i type="int" name="NELM">    40</i>
  <i type="int" name="NELMIN">     8</i>
  <i type="int" name="IBRION">     2</i>
  <i name="EDIFF">      0.00010000</i>
  <i name="EDIFFG">     -0.03000000</i>
  <i type="int" name="NSW">    30</i>
  <i type="int" name="ISIF">     3</i>
  <i name="ENCUT">    520.00000000</i>
  <i type="int" name="NBANDS">   768</i>
  <v name="MAGMOM">      0.60000000      0.60000000      0.60000000      0.60000000      0.60000000      0.60000000      0.60000000      0.60000000      0.60000000      0.60000000      0.60000000      0.60000000      0.60000000      0.60000000      0.60000000      0.60000000      0.60000000      0.60000000      0.60000000      0.60000000
      0.60000000      0.60000000      0.60000000      0.60000000      0.60000000      0.60000000      0.60000000      0.60000000      0.60000000      0.60000000      0.60000000      0.60000000      0.60000000      0.60000000      0.60000000      0.60000000      0.60000000      0.60000000      0.60000000      0.60000000
      0.60000000      0.60000000      0.60000000      0.60000000      0.60000000      0.60000000      0.60000000      0.60000000      5.00000000      5.00000000      5.00000000      5.00000000      5.00000000      5.00000000      5.00000000      5.00000000      5.00000000      5.00000000      5.00000000      5.00000000
      5.00000000      5.00000000      5.00000000      5.00000000      0.60000000      0.60000000      0.60000000      0.60000000      0.60000000      0.60000000      0.60000000      0.60000000      0.60000000      0.60000000      0.60000000      0.60000000      0.60000000      0.60000000      0.60000000      0.60000000
      0.60000000      0.60000000      0.60000000      0.60000000      0.60000000      0.60000000      0.60000000      0.60000000      0.60000000      0.60000000      0.60000000      0.60000000      0.60000000      0.60000000      0.60000000      0.60000000      0.60000000      0.60000000      0.60000000      0.60000000
      0.60000000      0.60000000      0.60000000      0.60000000      0.60000000      0.60000000      0.60000000      0.60000000      0.60000000      0.60000000      0.60000000      0.60000000      0.60000000      0.60000000      0.60000000      0.60000000      0.60000000      0.60000000      0.60000000      0.60000000
      0.60000000      0.60000000      0.60000000      0.60000000      0.60000000      0.60000000      0.60000000      0.60000000      0.60000000      0.60000000      0.60000000      0.60000000      0.60000000      0.60000000      0.60000000      0.60000000      0.60000000      0.60000000      0.60000000      0.60000000
      0.60000000      0.60000000      0.60000000      0.60000000      0.60000000      0.60000000      0.60000000      0.60000000      0.60000000      0.60000000      0.60000000      0.60000000</v>
  <i type="string" name="LREAL"> Auto</i>
  <i type="int" name="ISMEAR">     0</i>
  <i name="SIGMA">      0.05000000</i>
  <i type="int" name="LMAXMIX">     4</i>
  <v type="int" name="KPOINT_BSE">    -1     0     0     0</v>
  <i type="int" name="NELM">    40</i>
  <i type="logical" name="LDAU"> T  </i>
  <v type="int" name="LDAUTYPE">     2</v>
  <v type="int" name="LDAUL">     0     2     2     0</v>
  <v name="LDAUU">      0.00000000      3.00000000      5.00000000      0.00000000</v>
  <v name="LDAUJ">      0.00000000      0.00000000      0.00000000      0.00000000</v>
  <i type="int" name="LDAUPRINT">     1</i>
 </incar>
 <kpoints>
  <generation param="Monkhorst-Pack">
   <v type="int" name="divisions">       2        2        2 </v>
   <v name="usershift">      0.00000000       0.00000000       0.00000000 </v>
   <v name="genvec1">      0.50000000       0.00000000       0.00000000 </v>
   <v name="genvec2">      0.00000000       0.50000000       0.00000000 </v>
   <v name="genvec3">     -0.00000000      -0.00000000       0.50000000 </v>
   <v name="shift">      0.50000000       0.50000000       0.50000000 </v>
  </generation>
  <varray name="kpointlist" >
   <v>       0.25000000       0.25000000       0.25000000 </v>
   <v>      -0.25000000       0.25000000       0.25000000 </v>
   <v>       0.25000000      -0.25000000       0.25000000 </v>
   <v>      -0.25000000      -0.25000000       0.25000000 </v>
  </varray>
  <varray name="weights" >
   <v>       0.25000000 </v>
   <v>       0.25000000 </v>
   <v>       0.25000000 </v>
   <v>       0.25000000 </v>
  </varray>
 </kpoints>
 <parameters>
  <separator name="general" >
   <i type="string" name="SYSTEM">STF</i>
   <i type="logical" name="LCOMPAT"> F  </i>
  </separator>
  <separator name="electronic" >
   <i type="string" name="PREC">normal</i>
   <i name="ENMAX">    520.00000000</i>
   <i name="ENAUG">    605.39200000</i>
   <i name="EDIFF">      0.00010000</i>
   <i type="int" name="IALGO">    68</i>
   <i type="int" name="IWAVPR">    11</i>
   <i type="int" name="NBANDS">   768</i>
   <i name="NELECT">   1040.00000000</i>
   <i type="int" name="TURBO">     0</i>
   <i type="int" name="IRESTART">     0</i>
   <i type="int" name="NREBOOT">     0</i>
   <i type="int" name="NMIN">     0</i>
   <i name="EREF">      0.00000000</i>
   <separator name="electronic smearing" >
    <i type="int" name="ISMEAR">     0</i>
    <i name="SIGMA">      0.05000000</i>
    <i name="KSPACING">      0.50000000</i>
    <i type="logical" name="KGAMMA"> T  </i>
   </separator>
   <separator name="electronic projectors" >
    <i type="logical" name="LREAL"> T  </i>
    <v name="ROPT">     -0.00050000     -0.00050000     -0.00050000     -0.00050000</v>
    <i type="int" name="LMAXPAW">  -100</i>
    <i type="int" name="LMAXMIX">     4</i>
    <i type="logical" name="NLSPLINE"> F  </i>
   </separator>
   <separator name="electronic startup" >
    <i type="int" name="ISTART">     1</i>
    <i type="int" name="ICHARG">     0</i>
    <i type="int" name="INIWAV">     1</i>
   </separator>
   <separator name="electronic spin" >
    <i type="int" name="ISPIN">     2</i>
    <i type="logical" name="LNONCOLLINEAR"> F  </i>
    <v name="MAGMOM">      0.60000000      0.60000000      0.60000000      0.60000000      0.60000000      0.60000000      0.60000000      0.60000000      0.60000000      0.60000000      0.60000000      0.60000000      0.60000000      0.60000000      0.60000000      0.60000000      0.60000000      0.60000000      0.60000000      0.60000000
      0.60000000      0.60000000      0.60000000      0.60000000      0.60000000      0.60000000      0.60000000      0.60000000      0.60000000      0.60000000      0.60000000      0.60000000      0.60000000      0.60000000      0.60000000      0.60000000      0.60000000      0.60000000      0.60000000      0.60000000
      0.60000000      0.60000000      0.60000000      0.60000000      0.60000000      0.60000000      0.60000000      0.60000000      5.00000000      5.00000000      5.00000000      5.00000000      5.00000000      5.00000000      5.00000000      5.00000000      5.00000000      5.00000000      5.00000000      5.00000000
      5.00000000      5.00000000      5.00000000      5.00000000      0.60000000      0.60000000      0.60000000      0.60000000      0.60000000      0.60000000      0.60000000      0.60000000      0.60000000      0.60000000      0.60000000      0.60000000      0.60000000      0.60000000      0.60000000      0.60000000
      0.60000000      0.60000000      0.60000000      0.60000000      0.60000000      0.60000000      0.60000000      0.60000000      0.60000000      0.60000000      0.60000000      0.60000000      0.60000000      0.60000000      0.60000000      0.60000000      0.60000000      0.60000000      0.60000000      0.60000000
      0.60000000      0.60000000      0.60000000      0.60000000      0.60000000      0.60000000      0.60000000      0.60000000      0.60000000      0.60000000      0.60000000      0.60000000      0.60000000      0.60000000      0.60000000      0.60000000      0.60000000      0.60000000      0.60000000      0.60000000
      0.60000000      0.60000000      0.60000000      0.60000000      0.60000000      0.60000000      0.60000000      0.60000000      0.60000000      0.60000000      0.60000000      0.60000000      0.60000000      0.60000000      0.60000000      0.60000000      0.60000000      0.60000000      0.60000000      0.60000000
      0.60000000      0.60000000      0.60000000      0.60000000      0.60000000      0.60000000      0.60000000      0.60000000      0.60000000      0.60000000      0.60000000      0.60000000</v>
    <i name="NUPDOWN">     -1.00000000</i>
    <i type="logical" name="LSORBIT"> F  </i>
    <v name="SAXIS">      0.00000000      0.00000000      1.00000000</v>
    <i type="logical" name="LSPIRAL"> F  </i>
    <v name="QSPIRAL">      0.00000000      0.00000000      0.00000000</v>
    <i type="logical" name="LZEROZ"> F  </i>
   </separator>
   <separator name="electronic exchange-correlation" >
    <i type="logical" name="LASPH"> F  </i>
    <i type="logical" name="LMETAGGA"> F  </i>
   </separator>
   <separator name="electronic convergence" >
    <i type="int" name="NELM">    40</i>
    <i type="int" name="NELMDL">     0</i>
    <i type="int" name="NELMIN">     8</i>
    <i name="ENINI">    520.00000000</i>
    <separator name="electronic convergence detail" >
     <i type="logical" name="LDIAG"> T  </i>
     <i type="logical" name="LSUBROT"> F  </i>
     <i name="WEIMIN">      0.00100000</i>
     <i name="EBREAK">      0.00000003</i>
     <i name="DEPER">      0.30000000</i>
     <i type="int" name="NRMM">     4</i>
     <i name="TIME">      0.40000000</i>
    </separator>
   </separator>
   <separator name="electronic mixer" >
    <i name="AMIX">      0.40000000</i>
    <i name="BMIX">      1.00000000</i>
    <i name="AMIN">      0.10000000</i>
    <i name="AMIX_MAG">      1.60000000</i>
    <i name="BMIX_MAG">      1.00000000</i>
    <separator name="electronic mixer details" >
     <i type="int" name="IMIX">     4</i>
     <i type="logical" name="MIXFIRST"> F  </i>
     <i type="int" name="MAXMIX">   -45</i>
     <i name="WC">    100.00000000</i>
     <i type="int" name="INIMIX">     1</i>
     <i type="int" name="MIXPRE">     1</i>
     <i type="int" name="MREMOVE">     5</i>
    </separator>
   </separator>
   <separator name="electronic dipolcorrection" >
    <i type="logical" name="LDIPOL"> F  </i>
    <i type="logical" name="LMONO"> F  </i>
    <i type="int" name="IDIPOL">     0</i>
    <i name="EPSILON">      1.00000000</i>
    <v name="DIPOL">   -100.00000000   -100.00000000   -100.00000000</v>
    <i name="EFIELD">      0.00000000</i>
   </separator>
  </separator>
  <separator name="grids" >
   <i type="int" name="NGX">    64</i>
   <i type="int" name="NGY">    64</i>
   <i type="int" name="NGZ">    90</i>
   <i type="int" name="NGXF">   128</i>
   <i type="int" name="NGYF">   128</i>
   <i type="int" name="NGZF">   180</i>
   <i type="logical" name="ADDGRID"> F  </i>
  </separator>
  <separator name="ionic" >
   <i type="int" name="NSW">    30</i>
   <i type="int" name="IBRION">     2</i>
   <i type="int" name="ISIF">     3</i>
   <i name="PSTRESS">      0.00000000</i>
   <i name="EDIFFG">     -0.03000000</i>
   <i type="int" name="NFREE">     1</i>
   <i name="POTIM">      0.50000000</i>
   <i name="SMASS">     -3.00000000</i>
   <i name="SCALEE">      1.00000000</i>
  </separator>
  <separator name="ionic md" >
   <i name="TEBEG">      0.00010000</i>
   <i name="TEEND">      0.00010000</i>
   <i type="int" name="NBLOCK">     1</i>
   <i type="int" name="KBLOCK">    30</i>
   <i type="int" name="NPACO">   256</i>
   <i name="APACO">     16.00000000</i>
  </separator>
  <separator name="symmetry" >
   <i type="int" name="ISYM">     2</i>
   <i name="SYMPREC">      0.00001000</i>
  </separator>
  <separator name="dos" >
   <i type="logical" name="LORBIT"> F  </i>
   <v name="RWIGS">     -1.00000000     -1.00000000     -1.00000000     -1.00000000</v>
   <i type="int" name="NEDOS">   301</i>
   <i name="EMIN">     10.00000000</i>
   <i name="EMAX">    -10.00000000</i>
   <i name="EFERMI">      0.00000000</i>
  </separator>
  <separator name="writing" >
   <i type="int" name="NWRITE">     2</i>
   <i type="logical" name="LWAVE"> T  </i>
   <i type="logical" name="LCHARG"> T  </i>
   <i type="logical" name="LPARD"> F  </i>
   <i type="logical" name="LVTOT"> F  </i>
   <i type="logical" name="LVHAR"> F  </i>
   <i type="logical" name="LELF"> F  </i>
   <i type="logical" name="LOPTICS"> F  </i>
   <v name="STM">      0.00000000      0.00000000      0.00000000      0.00000000      0.00000000      0.00000000      0.00000000</v>
  </separator>
  <separator name="performance" >
   <i type="int" name="NPAR">     2</i>
   <i type="int" name="NSIM">     4</i>
   <i type="int" name="NBLK">    -1</i>
   <i type="logical" name="LPLANE"> T  </i>
   <i type="logical" name="LSCALAPACK"> T  </i>
   <i type="logical" name="LSCAAWARE"> F  </i>
   <i type="logical" name="LSCALU"> F  </i>
   <i type="logical" name="LASYNC"> F  </i>
   <i type="logical" name="LORBITALREAL"> F  </i>
  </separator>
  <separator name="miscellaneous" >
   <i type="int" name="IDIOT">     3</i>
   <i type="logical" name="LMUSIC"> F  </i>
   <v name="POMASS">     87.62000000     47.88000000     55.84700000     16.00000000</v>
   <v name="DARWINR">      0.00000000      0.00000000      0.00000000      0.00000000</v>
   <v name="DARWINV">      1.00000000      1.00000000      1.00000000      1.00000000</v>
   <i type="logical" name="LCORR"> T  </i>
  </separator>
  <i type="logical" name="GGA_COMPAT"> T  </i>
  <i type="logical" name="LBERRY"> F  </i>
  <i type="int" name="ICORELEVEL">     0</i>
  <i type="logical" name="LDAU"> T  </i>
  <v type="int" name="LDAUTYPE">     2</v>
  <v type="int" name="LDAUL">     0</v>
  <v name="LDAUU">      0.00000000</v>
  <v name="LDAUJ">      0.00000000</v>
  <i type="int" name="LDAUPRINT">     1</i>
  <i type="int" name="I_CONSTRAINED_M">     0</i>
  <separator name="electronic exchange-correlation" >
   <i type="string" name="GGA">--</i>
   <i type="int" name="VOSKOWN">     0</i>
   <i type="logical" name="LHFCALC"> F  </i>
   <i type="string" name="PRECFOCK"></i>
   <i type="logical" name="LSYMGRAD"> F  </i>
   <i type="logical" name="LHFONE"> F  </i>
   <i type="logical" name="LRHFCALC"> F  </i>
   <i type="logical" name="LTHOMAS"> F  </i>
   <i type="logical" name="LMODELHF"> F  </i>
   <i name="ENCUT4O">     -1.00000000</i>
   <i type="int" name="EXXOEP">     0</i>
   <i type="int" name="FOURORBIT">     0</i>
   <i name="AEXX">      0.00000000</i>
   <i name="HFALPHA">      0.00000000</i>
   <i name="MCALPHA">      0.00000000</i>
   <i name="ALDAX">      1.00000000</i>
   <i name="AGGAX">      1.00000000</i>
   <i name="ALDAC">      1.00000000</i>
   <i name="AGGAC">      1.00000000</i>
   <i type="int" name="NKREDX">     1</i>
   <i type="int" name="NKREDY">     1</i>
   <i type="int" name="NKREDZ">     1</i>
   <i type="logical" name="SHIFTRED"> F  </i>
   <i type="logical" name="ODDONLY"> F  </i>
   <i type="logical" name="EVENONLY"> F  </i>
   <i type="int" name="LMAXFOCK">     0</i>
   <i type="int" name="NMAXFOCKAE">     0</i>
   <i type="logical" name="LFOCKAEDFT"> F  </i>
   <i name="HFSCREEN">      0.00000000</i>
   <i name="HFSCREENC">      0.00000000</i>
   <i type="int" name="NBANDSGWLOW">     0</i>
  </separator>
  <separator name="vdW DFT" >
   <i type="logical" name="LUSE_VDW"> F  </i>
   <i name="Zab_VDW">     -0.84910000</i>
   <i name="PARAM1">      0.12340000</i>
   <i name="PARAM2">      1.00000000</i>
   <i name="PARAM3">      0.00000000</i>
  </separator>
  <separator name="model GW" >
   <i type="int" name="MODEL_GW">     0</i>
   <i name="MODEL_EPS0">      7.92876571</i>
   <i name="MODEL_ALPHA">      1.00000000</i>
  </separator>
  <separator name="linear response parameters" >
   <i type="logical" name="LEPSILON"> F  </i>
   <i type="logical" name="LRPA"> F  </i>
   <i type="logical" name="LNABLA"> F  </i>
   <i type="logical" name="LVEL"> F  </i>
   <i type="int" name="KINTER">     0</i>
   <i name="CSHIFT">      0.10000000</i>
   <i name="OMEGAMAX">     -1.00000000</i>
   <i name="DEG_THRESHOLD">      0.00200000</i>
  </separator>
  <separator name="orbital magnetization" >
   <i type="logical" name="NUCIND"> F  </i>
   <v name="MAGPOS">      0.00000000      0.00000000      0.00000000</v>
   <i type="logical" name="LNICSALL"> T  </i>
   <i type="logical" name="ORBITALMAG"> F  </i>
   <i type="logical" name="LMAGBLOCH"> F  </i>
   <i type="logical" name="LCHIMAG"> F  </i>
   <i type="logical" name="LGAUGE"> T  </i>
   <i type="int" name="MAGATOM">     0</i>
   <v name="MAGDIPOL">      0.00000000      0.00000000      0.00000000</v>
   <v name="AVECCONST">      0.00000000      0.00000000      0.00000000</v>
  </separator>
  <separator name="response functions" >
   <i type="logical" name="LADDER"> F  </i>
   <i type="logical" name="LFXC"> F  </i>
   <i type="logical" name="LHARTREE"> T  </i>
   <i type="int" name="IBSE">     0</i>
   <v type="int" name="KPOINT">    -1     0     0     0</v>
   <i type="logical" name="LTCTE"> F  </i>
   <i type="logical" name="LTETE"> F  </i>
   <i type="logical" name="LTRIPLET"> F  </i>
   <i type="logical" name="LFXCEPS"> F  </i>
   <i type="logical" name="LFXHEG"> F  </i>
   <i type="int" name="NATURALO">     0</i>
   <i type="logical" name="L2ORDER"> F  </i>
   <i type="logical" name="LUSEW"> F  </i>
   <i name="ENCUTGW">     -2.00000000</i>
   <i name="ENCUTGWSOFT">     -2.00000000</i>
   <i name="ENCUTLF">     -1.00000000</i>
   <i type="int" name="LMAXMP2">    -1</i>
   <i name="SCISSOR">      0.00000000</i>
   <i type="int" name="NOMEGA">     0</i>
   <i type="int" name="NOMEGAR">     0</i>
   <i type="int" name="NBANDSGW">    -1</i>
   <i type="int" name="NBANDSO">    -1</i>
   <i type="int" name="NBANDSV">    -1</i>
   <i type="int" name="NELM">    40</i>
   <i type="int" name="NELMHF">     1</i>
   <i type="int" name="DIM">     3</i>
   <i type="int" name="ANTIRES">     0</i>
   <i name="OMEGAMAX">    -30.00000000</i>
   <i name="OMEGAMIN">    -30.00000000</i>
   <i name="OMEGATL">   -200.00000000</i>
   <i type="int" name="OMEGAGRID">     0</i>
   <i name="CSHIFT">     -0.10000000</i>
   <i type="logical" name="SELFENERGY"> F  </i>
   <i type="logical" name="LSPECTRAL"> F  </i>
   <i type="logical" name="LSPECTRALGW"> F  </i>
   <i type="logical" name="LSINGLES"> F  </i>
   <i type="logical" name="LFERMIGW"> F  </i>
   <i type="logical" name="ODDONLYGW"> F  </i>
   <i type="logical" name="EVENONLYGW"> F  </i>
   <i type="int" name="NKREDLFX">     1</i>
   <i type="int" name="NKREDLFY">     1</i>
   <i type="int" name="NKREDLFZ">     1</i>
   <i type="int" name="MAXMEM">  1800</i>
   <i type="int" name="TELESCOPE">     0</i>
   <i type="int" name="TAUPAR">     1</i>
   <i type="int" name="OMEGAPAR">    -1</i>
   <i name="LAMBDA">      1.00000000</i>
  </separator>
  <separator name="External order field" >
   <i name="OFIELD_KAPPA">      0.00000000</i>
   <v name="OFIELD_K">      0.00000000      0.00000000      0.00000000</v>
   <i name="OFIELD_Q6_NEAR">      0.00000000</i>
   <i name="OFIELD_Q6_FAR">      0.00000000</i>
   <i name="OFIELD_A">      0.00000000</i>
  </separator>
 </parameters>
 <atominfo>
  <atoms>     152 </atoms>
  <types>       4 </types>
  <array name="atoms" >
   <dimension dim="1">ion</dimension>
   <field type="string">element</field>
   <field type="int">atomtype</field>
   <set>
    <rc><c>Sr</c><c>   1</c></rc>
    <rc><c>Sr</c><c>   1</c></rc>
    <rc><c>Sr</c><c>   1</c></rc>
    <rc><c>Sr</c><c>   1</c></rc>
    <rc><c>Sr</c><c>   1</c></rc>
    <rc><c>Sr</c><c>   1</c></rc>
    <rc><c>Sr</c><c>   1</c></rc>
    <rc><c>Sr</c><c>   1</c></rc>
    <rc><c>Sr</c><c>   1</c></rc>
    <rc><c>Sr</c><c>   1</c></rc>
    <rc><c>Sr</c><c>   1</c></rc>
    <rc><c>Sr</c><c>   1</c></rc>
    <rc><c>Sr</c><c>   1</c></rc>
    <rc><c>Sr</c><c>   1</c></rc>
    <rc><c>Sr</c><c>   1</c></rc>
    <rc><c>Sr</c><c>   1</c></rc>
    <rc><c>Sr</c><c>   1</c></rc>
    <rc><c>Sr</c><c>   1</c></rc>
    <rc><c>Sr</c><c>   1</c></rc>
    <rc><c>Sr</c><c>   1</c></rc>
    <rc><c>Sr</c><c>   1</c></rc>
    <rc><c>Sr</c><c>   1</c></rc>
    <rc><c>Sr</c><c>   1</c></rc>
    <rc><c>Sr</c><c>   1</c></rc>
    <rc><c>Sr</c><c>   1</c></rc>
    <rc><c>Sr</c><c>   1</c></rc>
    <rc><c>Sr</c><c>   1</c></rc>
    <rc><c>Sr</c><c>   1</c></rc>
    <rc><c>Sr</c><c>   1</c></rc>
    <rc><c>Sr</c><c>   1</c></rc>
    <rc><c>Sr</c><c>   1</c></rc>
    <rc><c>Sr</c><c>   1</c></rc>
    <rc><c>Ti</c><c>   2</c></rc>
    <rc><c>Ti</c><c>   2</c></rc>
    <rc><c>Ti</c><c>   2</c></rc>
    <rc><c>Ti</c><c>   2</c></rc>
    <rc><c>Ti</c><c>   2</c></rc>
    <rc><c>Ti</c><c>   2</c></rc>
    <rc><c>Ti</c><c>   2</c></rc>
    <rc><c>Ti</c><c>   2</c></rc>
    <rc><c>Ti</c><c>   2</c></rc>
    <rc><c>Ti</c><c>   2</c></rc>
    <rc><c>Ti</c><c>   2</c></rc>
    <rc><c>Ti</c><c>   2</c></rc>
    <rc><c>Ti</c><c>   2</c></rc>
    <rc><c>Ti</c><c>   2</c></rc>
    <rc><c>Ti</c><c>   2</c></rc>
    <rc><c>Ti</c><c>   2</c></rc>
    <rc><c>Fe</c><c>   3</c></rc>
    <rc><c>Fe</c><c>   3</c></rc>
    <rc><c>Fe</c><c>   3</c></rc>
    <rc><c>Fe</c><c>   3</c></rc>
    <rc><c>Fe</c><c>   3</c></rc>
    <rc><c>Fe</c><c>   3</c></rc>
    <rc><c>Fe</c><c>   3</c></rc>
    <rc><c>Fe</c><c>   3</c></rc>
    <rc><c>Fe</c><c>   3</c></rc>
    <rc><c>Fe</c><c>   3</c></rc>
    <rc><c>Fe</c><c>   3</c></rc>
    <rc><c>Fe</c><c>   3</c></rc>
    <rc><c>Fe</c><c>   3</c></rc>
    <rc><c>Fe</c><c>   3</c></rc>
    <rc><c>Fe</c><c>   3</c></rc>
    <rc><c>Fe</c><c>   3</c></rc>
    <rc><c>O </c><c>   4</c></rc>
    <rc><c>O </c><c>   4</c></rc>
    <rc><c>O </c><c>   4</c></rc>
    <rc><c>O </c><c>   4</c></rc>
    <rc><c>O </c><c>   4</c></rc>
    <rc><c>O </c><c>   4</c></rc>
    <rc><c>O </c><c>   4</c></rc>
    <rc><c>O </c><c>   4</c></rc>
    <rc><c>O </c><c>   4</c></rc>
    <rc><c>O </c><c>   4</c></rc>
    <rc><c>O </c><c>   4</c></rc>
    <rc><c>O </c><c>   4</c></rc>
    <rc><c>O </c><c>   4</c></rc>
    <rc><c>O </c><c>   4</c></rc>
    <rc><c>O </c><c>   4</c></rc>
    <rc><c>O </c><c>   4</c></rc>
    <rc><c>O </c><c>   4</c></rc>
    <rc><c>O </c><c>   4</c></rc>
    <rc><c>O </c><c>   4</c></rc>
    <rc><c>O </c><c>   4</c></rc>
    <rc><c>O </c><c>   4</c></rc>
    <rc><c>O </c><c>   4</c></rc>
    <rc><c>O </c><c>   4</c></rc>
    <rc><c>O </c><c>   4</c></rc>
    <rc><c>O </c><c>   4</c></rc>
    <rc><c>O </c><c>   4</c></rc>
    <rc><c>O </c><c>   4</c></rc>
    <rc><c>O </c><c>   4</c></rc>
    <rc><c>O </c><c>   4</c></rc>
    <rc><c>O </c><c>   4</c></rc>
    <rc><c>O </c><c>   4</c></rc>
    <rc><c>O </c><c>   4</c></rc>
    <rc><c>O </c><c>   4</c></rc>
    <rc><c>O </c><c>   4</c></rc>
    <rc><c>O </c><c>   4</c></rc>
    <rc><c>O </c><c>   4</c></rc>
    <rc><c>O </c><c>   4</c></rc>
    <rc><c>O </c><c>   4</c></rc>
    <rc><c>O </c><c>   4</c></rc>
    <rc><c>O </c><c>   4</c></rc>
    <rc><c>O </c><c>   4</c></rc>
    <rc><c>O </c><c>   4</c></rc>
    <rc><c>O </c><c>   4</c></rc>
    <rc><c>O </c><c>   4</c></rc>
    <rc><c>O </c><c>   4</c></rc>
    <rc><c>O </c><c>   4</c></rc>
    <rc><c>O </c><c>   4</c></rc>
    <rc><c>O </c><c>   4</c></rc>
    <rc><c>O </c><c>   4</c></rc>
    <rc><c>O </c><c>   4</c></rc>
    <rc><c>O </c><c>   4</c></rc>
    <rc><c>O </c><c>   4</c></rc>
    <rc><c>O </c><c>   4</c></rc>
    <rc><c>O </c><c>   4</c></rc>
    <rc><c>O </c><c>   4</c></rc>
    <rc><c>O </c><c>   4</c></rc>
    <rc><c>O </c><c>   4</c></rc>
    <rc><c>O </c><c>   4</c></rc>
    <rc><c>O </c><c>   4</c></rc>
    <rc><c>O </c><c>   4</c></rc>
    <rc><c>O </c><c>   4</c></rc>
    <rc><c>O </c><c>   4</c></rc>
    <rc><c>O </c><c>   4</c></rc>
    <rc><c>O </c><c>   4</c></rc>
    <rc><c>O </c><c>   4</c></rc>
    <rc><c>O </c><c>   4</c></rc>
    <rc><c>O </c><c>   4</c></rc>
    <rc><c>O </c><c>   4</c></rc>
    <rc><c>O </c><c>   4</c></rc>
    <rc><c>O </c><c>   4</c></rc>
    <rc><c>O </c><c>   4</c></rc>
    <rc><c>O </c><c>   4</c></rc>
    <rc><c>O </c><c>   4</c></rc>
    <rc><c>O </c><c>   4</c></rc>
    <rc><c>O </c><c>   4</c></rc>
    <rc><c>O </c><c>   4</c></rc>
    <rc><c>O </c><c>   4</c></rc>
    <rc><c>O </c><c>   4</c></rc>
    <rc><c>O </c><c>   4</c></rc>
    <rc><c>O </c><c>   4</c></rc>
    <rc><c>O </c><c>   4</c></rc>
    <rc><c>O </c><c>   4</c></rc>
    <rc><c>O </c><c>   4</c></rc>
    <rc><c>O </c><c>   4</c></rc>
    <rc><c>O </c><c>   4</c></rc>
    <rc><c>O </c><c>   4</c></rc>
    <rc><c>O </c><c>   4</c></rc>
    <rc><c>O </c><c>   4</c></rc>
   </set>
  </array>
  <array name="atomtypes" >
   <dimension dim="1">type</dimension>
   <field type="int">atomspertype</field>
   <field type="string">element</field>
   <field>mass</field>
   <field>valence</field>
   <field type="string">pseudopotential</field>
   <set>
    <rc><c>  32</c><c>Sr</c><c>     87.62000000</c><c>     10.00000000</c><c>  PAW_PBE Sr_sv 07Sep2000               </c></rc>
    <rc><c>  16</c><c>Ti</c><c>     47.88000000</c><c>      4.00000000</c><c>  PAW_PBE Ti 08Apr2002                  </c></rc>
    <rc><c>  16</c><c>Fe</c><c>     55.84700000</c><c>      8.00000000</c><c>  PAW_PBE Fe 06Sep2000                  </c></rc>
    <rc><c>  88</c><c>O </c><c>     16.00000000</c><c>      6.00000000</c><c>  PAW_PBE O 08Apr2002                   </c></rc>
   </set>
  </array>
 </atominfo>
 <structure name="initialpos" >
  <crystal>
   <varray name="basis" >
    <v>      11.22926957      -0.00387531       0.01248210 </v>
    <v>      -0.00386773      11.24119075      -0.00916786 </v>
    <v>       0.01802156      -0.01351547      15.91237467 </v>
   </varray>
   <i name="volume">   2008.62064707 </i>
   <varray name="rec_basis" >
    <v>       0.08905311       0.00003056      -0.00010083 </v>
    <v>       0.00003062       0.08895862       0.00007552 </v>
    <v>      -0.00006984       0.00005123       0.06284429 </v>
   </varray>
  </crystal>
  <varray name="positions" >
   <v>       0.01740919       0.23712980       0.12905382 </v>
   <v>       0.00553269       0.23567811       0.63153297 </v>
   <v>       0.99181024       0.75721643       0.11892581 </v>
   <v>       0.00633705       0.75689433       0.63283924 </v>
   <v>       0.49086469       0.26451053       0.12276321 </v>
   <v>       0.49421384       0.24339712       0.63583073 </v>
   <v>       0.49633911       0.75350519       0.11080193 </v>
   <v>       0.50194712       0.75711290       0.62773276 </v>
   <v>       0.00487865       0.23250287       0.37597388 </v>
   <v>       0.01212811       0.24625996       0.87482949 </v>
   <v>       0.99816156       0.76158259       0.37627001 </v>
   <v>       0.00331704       0.76183624       0.87290159 </v>
   <v>       0.49809491       0.25106015       0.37893994 </v>
   <v>       0.48254422       0.24302875       0.87401054 </v>
   <v>       0.50213493       0.75830645       0.38854659 </v>
   <v>       0.49680058       0.75445064       0.87109886 </v>
   <v>       0.24541468       0.01004481       0.11828784 </v>
   <v>       0.25413581       0.99850350       0.62894150 </v>
   <v>       0.25041380       0.49397603       0.11995934 </v>
   <v>       0.25535961       0.50033604       0.63766468 </v>
   <v>       0.75119517       0.99170242       0.11984049 </v>
   <v>       0.74909143       0.99711685       0.62839812 </v>
   <v>       0.73022211       0.51911159       0.12819198 </v>
   <v>       0.74881579       0.49355701       0.63502071 </v>
   <v>       0.24682954       0.00289719       0.37810527 </v>
   <v>       0.24654052       0.00492614       0.87164912 </v>
   <v>       0.24795597       0.50184124       0.37575973 </v>
   <v>       0.25571664       0.49903021       0.87587196 </v>
   <v>       0.75659029       0.99522995       0.38541679 </v>
   <v>       0.74765761       0.98538172       0.86965718 </v>
   <v>       0.74343118       0.50173987       0.37642662 </v>
   <v>       0.74532878       0.50735032       0.87720700 </v>
   <v>       0.99907964       0.00042918       0.00012417 </v>
   <v>       0.00493868       0.99577387       0.50314394 </v>
   <v>       0.99937614       0.50051359       0.50349254 </v>
   <v>       0.49679274       0.99618815       0.99558984 </v>
   <v>       0.50092776       0.49926604       0.51221658 </v>
   <v>       0.74616029       0.24587333       0.50390978 </v>
   <v>       0.23782751       0.76148395       0.24557310 </v>
   <v>       0.25011324       0.75303074       0.75207172 </v>
   <v>       0.75260898       0.25733626       0.25702431 </v>
   <v>       0.75121400       0.24744439       0.75373254 </v>
   <v>       0.75293588       0.74686973       0.74956434 </v>
   <v>       0.99164931       0.00444987       0.24929337 </v>
   <v>       0.99567669       0.49494354       0.25727257 </v>
   <v>       0.00008902       0.49667418       0.75180092 </v>
   <v>       0.48878483       0.01588874       0.24395530 </v>
   <v>       0.50187270       0.49597238       0.75934272 </v>
   <v>       0.00905275       0.51390022       0.98886674 </v>
   <v>       0.50189924       0.00065354       0.50573148 </v>
   <v>       0.49085973       0.51122499       0.00026324 </v>
   <v>       0.25244592       0.24953575       0.00296347 </v>
   <v>       0.26216744       0.24002782       0.49717281 </v>
   <v>       0.25097647       0.75508392       0.99768365 </v>
   <v>       0.25405511       0.74775116       0.50137972 </v>
   <v>       0.74477200       0.23000946       0.98790868 </v>
   <v>       0.74495923       0.74907982       0.00027605 </v>
   <v>       0.74290745       0.75654837       0.50178502 </v>
   <v>       0.24599047       0.25894967       0.25403449 </v>
   <v>       0.24754636       0.25083950       0.75008064 </v>
   <v>       0.75789018       0.74035146       0.25224849 </v>
   <v>       0.00001815       0.00121948       0.75013803 </v>
   <v>       0.49804009       0.00076458       0.75040422 </v>
   <v>       0.50336687       0.50444156       0.24376726 </v>
   <v>       0.12811237       0.11726700       0.25426848 </v>
   <v>       0.11692407       0.13375263       0.75367541 </v>
   <v>       0.12281918       0.61301460       0.24404501 </v>
   <v>       0.11707808       0.62989297       0.76191744 </v>
   <v>       0.63356516       0.13720505       0.23248505 </v>
   <v>       0.62038256       0.13435402       0.76635590 </v>
   <v>       0.60171914       0.64338490       0.26513320 </v>
   <v>       0.61750992       0.62913352       0.75642016 </v>
   <v>       0.36895485       0.40274226       0.26005030 </v>
   <v>       0.38340727       0.36939174       0.74920627 </v>
   <v>       0.36222011       0.88985179       0.24140661 </v>
   <v>       0.38073676       0.86629377       0.73674021 </v>
   <v>       0.87188675       0.37866638       0.21279577 </v>
   <v>       0.88440567       0.36559467       0.73194568 </v>
   <v>       0.85288612       0.88740405       0.25019993 </v>
   <v>       0.88107062       0.86533602       0.74523366 </v>
   <v>       0.38251665       0.14081287       0.26315979 </v>
   <v>       0.36559083       0.12208393       0.74822967 </v>
   <v>       0.37022292       0.61503712       0.75739559 </v>
   <v>       0.87862703       0.13567888       0.23819966 </v>
   <v>       0.86489354       0.11752708       0.74311394 </v>
   <v>       0.87829644       0.62050456       0.23667378 </v>
   <v>       0.86876007       0.61177958       0.74796735 </v>
   <v>       0.11174573       0.37453221       0.24023948 </v>
   <v>       0.13261930       0.38483615       0.75119876 </v>
   <v>       0.10807602       0.86364345       0.25490211 </v>
   <v>       0.13044678       0.88028574       0.75012462 </v>
   <v>       0.63250725       0.38097072       0.26200316 </v>
   <v>       0.63558748       0.38256419       0.75029723 </v>
   <v>       0.63351326       0.87711591       0.74771240 </v>
   <v>       0.37315317       0.38363699       0.00495829 </v>
   <v>       0.37714136       0.38149780       0.48772449 </v>
   <v>       0.36533979       0.88384429       0.01218792 </v>
   <v>       0.37811090       0.87403997       0.49934073 </v>
   <v>       0.87435521       0.38108372       0.51065312 </v>
   <v>       0.86992336       0.87625088       0.00612919 </v>
   <v>       0.88559694       0.86128403       0.50482689 </v>
   <v>       0.12861674       0.12214968       0.00063523 </v>
   <v>       0.12007566       0.13034675       0.49563679 </v>
   <v>       0.12930277       0.62617015       0.99771870 </v>
   <v>       0.11819623       0.62077942       0.48220714 </v>
   <v>       0.63079042       0.10988623       0.98673577 </v>
   <v>       0.62578338       0.12774981       0.48219673 </v>
   <v>       0.62757993       0.61402327       0.99732417 </v>
   <v>       0.62899641       0.61550708       0.48820502 </v>
   <v>       0.09295560       0.37837328       0.02138888 </v>
   <v>       0.11867147       0.87203048       0.00377484 </v>
   <v>       0.13088823       0.87489549       0.48617132 </v>
   <v>       0.66816691       0.35135729       0.04261667 </v>
   <v>       0.62271501       0.37691651       0.48235121 </v>
   <v>       0.61497568       0.86431452       0.99032341 </v>
   <v>       0.62850876       0.87748487       0.50430411 </v>
   <v>       0.38519412       0.13130499       0.00664669 </v>
   <v>       0.37894368       0.12015430       0.48076418 </v>
   <v>       0.37907245       0.63538594       0.98521272 </v>
   <v>       0.38247904       0.62042173       0.49376310 </v>
   <v>       0.88068919       0.14017237       0.01901258 </v>
   <v>       0.87135304       0.12213101       0.50565985 </v>
   <v>       0.87651150       0.60455214       0.02327001 </v>
   <v>       0.00619537       0.99335904       0.12766794 </v>
   <v>       0.01250159       0.99705049       0.62316309 </v>
   <v>       0.01617169       0.51251560       0.62164281 </v>
   <v>       0.52050176       0.98786920       0.12694970 </v>
   <v>       0.50842555       0.01691662       0.62525502 </v>
   <v>       0.48595769       0.51882680       0.12177915 </v>
   <v>       0.50493284       0.49810767       0.62790284 </v>
   <v>       0.98767927       0.00268316       0.37403035 </v>
   <v>       0.98767493       0.00212798       0.87846647 </v>
   <v>       0.98045350       0.48514170       0.37531555 </v>
   <v>       0.97949433       0.48123409       0.87513229 </v>
   <v>       0.54421006       0.96590704       0.34777540 </v>
   <v>       0.48034240       0.98998803       0.87429702 </v>
   <v>       0.50978701       0.47766130       0.88062109 </v>
   <v>       0.22492980       0.27469598       0.37867953 </v>
   <v>       0.24818078       0.26072183       0.88121196 </v>
   <v>       0.28083989       0.72373424       0.35710328 </v>
   <v>       0.25468457       0.76845662       0.87336488 </v>
   <v>       0.77562462       0.25591245       0.37228040 </v>
   <v>       0.77659783       0.27271099       0.87562203 </v>
   <v>       0.77174515       0.73653756       0.37817571 </v>
   <v>       0.76558395       0.74363466       0.87527750 </v>
   <v>       0.25662282       0.25014790       0.12968925 </v>
   <v>       0.24360968       0.26362515       0.61637337 </v>
   <v>       0.26513062       0.72546042       0.13060183 </v>
   <v>       0.24152272       0.73514103       0.62369482 </v>
   <v>       0.72604928       0.24500973       0.62265171 </v>
   <v>       0.72548607       0.75954364       0.13246370 </v>
   <v>       0.75468758       0.72614015       0.62171348 </v>
  </varray>
 </structure>
 <calculation>
  <scstep>
   <time name="dav">  607.07  607.08</time>
   <time name="total">  614.22  614.56</time>
   <energy>
    <i name="alphaZ">   5606.95097349 </i>
    <i name="ewald"> -61595.53672704 </i>
    <i name="hartreedc"> -17977.78358687 </i>
    <i name="XCdc">   3182.21555236 </i>
    <i name="pawpsdc"> 114627.15006950 </i>
    <i name="pawaedc">-113828.19106793 </i>
    <i name="eentropy">     -0.02802180 </i>
    <i name="bandstr">  -7116.67049327 </i>
    <i name="atom">  76050.17612637 </i>
    <i name="e_fr_energy">  -1051.71717519 </i>
    <i name="e_wo_entrp">  -1051.68915339 </i>
    <i name="e_0_energy">  -1051.70316429 </i>
   </energy>
  </scstep>
  <scstep>
   <time name="diag">   65.14   65.15</time>
   <time name="diis">   69.29   69.29</time>
   <time name="orth">   33.48   33.48</time>
   <time name="total">  175.14  175.20</time>
   <energy>
    <i name="e_fr_energy">  -1051.71723636 </i>
    <i name="e_wo_entrp">  -1051.68864697 </i>
    <i name="e_0_energy">  -1051.70294166 </i>
   </energy>
  </scstep>
  <scstep>
   <time name="diag">   64.99   65.01</time>
   <time name="diis">   61.84   61.86</time>
   <time name="orth">   33.52   33.52</time>
   <time name="total">  167.59  168.04</time>
   <energy>
    <i name="e_fr_energy">  -1051.71716421 </i>
    <i name="e_wo_entrp">  -1051.68890867 </i>
    <i name="e_0_energy">  -1051.70303644 </i>
   </energy>
  </scstep>
  <scstep>
   <time name="diag">   65.05   65.05</time>
   <time name="diis">   58.74   58.75</time>
   <time name="orth">   33.51   33.51</time>
   <time name="total">  164.53  164.59</time>
   <energy>
    <i name="e_fr_energy">  -1051.71716559 </i>
    <i name="e_wo_entrp">  -1051.68898923 </i>
    <i name="e_0_energy">  -1051.70307741 </i>
   </energy>
  </scstep>
  <scstep>
   <time name="diag">   65.06   65.05</time>
   <time name="diis">   55.52   55.53</time>
   <time name="orth">   33.52   33.52</time>
   <time name="total">  161.34  161.41</time>
   <energy>
    <i name="e_fr_energy">  -1051.71716643 </i>
    <i name="e_wo_entrp">  -1051.68898282 </i>
    <i name="e_0_energy">  -1051.70307463 </i>
   </energy>
  </scstep>
  <scstep>
   <time name="diag">   65.07   65.07</time>
   <time name="diis">   49.55   49.55</time>
   <time name="orth">   33.51   33.51</time>
   <time name="total">  155.39  155.56</time>
   <energy>
    <i name="e_fr_energy">  -1051.71716675 </i>
    <i name="e_wo_entrp">  -1051.68896656 </i>
    <i name="e_0_energy">  -1051.70306665 </i>
   </energy>
  </scstep>
  <scstep>
   <time name="diag">   65.04   65.05</time>
   <time name="diis">   46.88   46.88</time>
   <time name="orth">   33.43   33.43</time>
   <time name="total">  152.62  153.02</time>
   <energy>
    <i name="e_fr_energy">  -1051.71716669 </i>
    <i name="e_wo_entrp">  -1051.68897691 </i>
    <i name="e_0_energy">  -1051.70307180 </i>
   </energy>
  </scstep>
  <scstep>
   <time name="diag">   64.93   64.97</time>
   <time name="diis">   44.47   44.47</time>
   <time name="orth">   33.45   33.45</time>
   <time name="total">  143.93  144.10</time>
   <energy>
    <i name="alphaZ">   5606.95097349 </i>
    <i name="ewald"> -61595.53672704 </i>
    <i name="hartreedc"> -17977.78721698 </i>
    <i name="XCdc">   3182.21600662 </i>
    <i name="pawpsdc"> 114625.61885807 </i>
    <i name="pawaedc">-113826.66364856 </i>
    <i name="eentropy">     -0.02819390 </i>
    <i name="bandstr">  -7116.66334481 </i>
    <i name="atom">  76050.17612637 </i>
    <i name="e_fr_energy">  -1051.71716674 </i>
    <i name="e_wo_entrp">  -1051.68897284 </i>
    <i name="e_0_energy">  -1051.70306979 </i>
   </energy>
  </scstep>
  <structure>
   <crystal>
    <varray name="basis" >
     <v>      11.22926957      -0.00387531       0.01248210 </v>
     <v>      -0.00386773      11.24119075      -0.00916786 </v>
     <v>       0.01802156      -0.01351547      15.91237467 </v>
    </varray>
    <i name="volume">   2008.62064707 </i>
    <varray name="rec_basis" >
     <v>       0.08905311       0.00003056      -0.00010083 </v>
     <v>       0.00003062       0.08895862       0.00007552 </v>
     <v>      -0.00006984       0.00005123       0.06284429 </v>
    </varray>
   </crystal>
   <varray name="positions" >
    <v>       0.01740919       0.23712980       0.12905382 </v>
    <v>       0.00553269       0.23567811       0.63153297 </v>
    <v>       0.99181024       0.75721643       0.11892581 </v>
    <v>       0.00633705       0.75689433       0.63283924 </v>
    <v>       0.49086469       0.26451053       0.12276321 </v>
    <v>       0.49421384       0.24339712       0.63583073 </v>
    <v>       0.49633911       0.75350519       0.11080193 </v>
    <v>       0.50194712       0.75711290       0.62773276 </v>
    <v>       0.00487865       0.23250287       0.37597388 </v>
    <v>       0.01212811       0.24625996       0.87482949 </v>
    <v>       0.99816156       0.76158259       0.37627001 </v>
    <v>       0.00331704       0.76183624       0.87290159 </v>
    <v>       0.49809491       0.25106015       0.37893994 </v>
    <v>       0.48254422       0.24302875       0.87401054 </v>
    <v>       0.50213493       0.75830645       0.38854659 </v>
    <v>       0.49680058       0.75445064       0.87109886 </v>
    <v>       0.24541468       0.01004481       0.11828784 </v>
    <v>       0.25413581       0.99850350       0.62894150 </v>
    <v>       0.25041380       0.49397603       0.11995934 </v>
    <v>       0.25535961       0.50033604       0.63766468 </v>
    <v>       0.75119517       0.99170242       0.11984049 </v>
    <v>       0.74909143       0.99711685       0.62839812 </v>
    <v>       0.73022211       0.51911159       0.12819198 </v>
    <v>       0.74881579       0.49355701       0.63502071 </v>
    <v>       0.24682954       0.00289719       0.37810527 </v>
    <v>       0.24654052       0.00492614       0.87164912 </v>
    <v>       0.24795597       0.50184124       0.37575973 </v>
    <v>       0.25571664       0.49903021       0.87587196 </v>
    <v>       0.75659029       0.99522995       0.38541679 </v>
    <v>       0.74765761       0.98538172       0.86965718 </v>
    <v>       0.74343118       0.50173987       0.37642662 </v>
    <v>       0.74532878       0.50735032       0.87720700 </v>
    <v>       0.99907964       0.00042918       0.00012417 </v>
    <v>       0.00493868       0.99577387       0.50314394 </v>
    <v>       0.99937614       0.50051359       0.50349254 </v>
    <v>       0.49679274       0.99618815       0.99558984 </v>
    <v>       0.50092776       0.49926604       0.51221658 </v>
    <v>       0.74616029       0.24587333       0.50390978 </v>
    <v>       0.23782751       0.76148395       0.24557310 </v>
    <v>       0.25011324       0.75303074       0.75207172 </v>
    <v>       0.75260898       0.25733626       0.25702431 </v>
    <v>       0.75121400       0.24744439       0.75373254 </v>
    <v>       0.75293588       0.74686973       0.74956434 </v>
    <v>       0.99164931       0.00444987       0.24929337 </v>
    <v>       0.99567669       0.49494354       0.25727257 </v>
    <v>       0.00008902       0.49667418       0.75180092 </v>
    <v>       0.48878483       0.01588874       0.24395530 </v>
    <v>       0.50187270       0.49597238       0.75934272 </v>
    <v>       0.00905275       0.51390022       0.98886674 </v>
    <v>       0.50189924       0.00065354       0.50573148 </v>
    <v>       0.49085973       0.51122499       0.00026324 </v>
    <v>       0.25244592       0.24953575       0.00296347 </v>
    <v>       0.26216744       0.24002782       0.49717281 </v>
    <v>       0.25097647       0.75508392       0.99768365 </v>
    <v>       0.25405511       0.74775116       0.50137972 </v>
    <v>       0.74477200       0.23000946       0.98790868 </v>
    <v>       0.74495923       0.74907982       0.00027605 </v>
    <v>       0.74290745       0.75654837       0.50178502 </v>
    <v>       0.24599047       0.25894967       0.25403449 </v>
    <v>       0.24754636       0.25083950       0.75008064 </v>
    <v>       0.75789018       0.74035146       0.25224849 </v>
    <v>       0.00001815       0.00121948       0.75013803 </v>
    <v>       0.49804009       0.00076458       0.75040422 </v>
    <v>       0.50336687       0.50444156       0.24376726 </v>
    <v>       0.12811237       0.11726700       0.25426848 </v>
    <v>       0.11692407       0.13375263       0.75367541 </v>
    <v>       0.12281918       0.61301460       0.24404501 </v>
    <v>       0.11707808       0.62989297       0.76191744 </v>
    <v>       0.63356516       0.13720505       0.23248505 </v>
    <v>       0.62038256       0.13435402       0.76635590 </v>
    <v>       0.60171914       0.64338490       0.26513320 </v>
    <v>       0.61750992       0.62913352       0.75642016 </v>
    <v>       0.36895485       0.40274226       0.26005030 </v>
    <v>       0.38340727       0.36939174       0.74920627 </v>
    <v>       0.36222011       0.88985179       0.24140661 </v>
    <v>       0.38073676       0.86629377       0.73674021 </v>
    <v>       0.87188675       0.37866638       0.21279577 </v>
    <v>       0.88440567       0.36559467       0.73194568 </v>
    <v>       0.85288612       0.88740405       0.25019993 </v>
    <v>       0.88107062       0.86533602       0.74523366 </v>
    <v>       0.38251665       0.14081287       0.26315979 </v>
    <v>       0.36559083       0.12208393       0.74822967 </v>
    <v>       0.37022292       0.61503712       0.75739559 </v>
    <v>       0.87862703       0.13567888       0.23819966 </v>
    <v>       0.86489354       0.11752708       0.74311394 </v>
    <v>       0.87829644       0.62050456       0.23667378 </v>
    <v>       0.86876007       0.61177958       0.74796735 </v>
    <v>       0.11174573       0.37453221       0.24023948 </v>
    <v>       0.13261930       0.38483615       0.75119876 </v>
    <v>       0.10807602       0.86364345       0.25490211 </v>
    <v>       0.13044678       0.88028574       0.75012462 </v>
    <v>       0.63250725       0.38097072       0.26200316 </v>
    <v>       0.63558748       0.38256419       0.75029723 </v>
    <v>       0.63351326       0.87711591       0.74771240 </v>
    <v>       0.37315317       0.38363699       0.00495829 </v>
    <v>       0.37714136       0.38149780       0.48772449 </v>
    <v>       0.36533979       0.88384429       0.01218792 </v>
    <v>       0.37811090       0.87403997       0.49934073 </v>
    <v>       0.87435521       0.38108372       0.51065312 </v>
    <v>       0.86992336       0.87625088       0.00612919 </v>
    <v>       0.88559694       0.86128403       0.50482689 </v>
    <v>       0.12861674       0.12214968       0.00063523 </v>
    <v>       0.12007566       0.13034675       0.49563679 </v>
    <v>       0.12930277       0.62617015       0.99771870 </v>
    <v>       0.11819623       0.62077942       0.48220714 </v>
    <v>       0.63079042       0.10988623       0.98673577 </v>
    <v>       0.62578338       0.12774981       0.48219673 </v>
    <v>       0.62757993       0.61402327       0.99732417 </v>
    <v>       0.62899641       0.61550708       0.48820502 </v>
    <v>       0.09295560       0.37837328       0.02138888 </v>
    <v>       0.11867147       0.87203048       0.00377484 </v>
    <v>       0.13088823       0.87489549       0.48617132 </v>
    <v>       0.66816691       0.35135729       0.04261667 </v>
    <v>       0.62271501       0.37691651       0.48235121 </v>
    <v>       0.61497568       0.86431452       0.99032341 </v>
    <v>       0.62850876       0.87748487       0.50430411 </v>
    <v>       0.38519412       0.13130499       0.00664669 </v>
    <v>       0.37894368       0.12015430       0.48076418 </v>
    <v>       0.37907245       0.63538594       0.98521272 </v>
    <v>       0.38247904       0.62042173       0.49376310 </v>
    <v>       0.88068919       0.14017237       0.01901258 </v>
    <v>       0.87135304       0.12213101       0.50565985 </v>
    <v>       0.87651150       0.60455214       0.02327001 </v>
    <v>       0.00619537       0.99335904       0.12766794 </v>
    <v>       0.01250159       0.99705049       0.62316309 </v>
    <v>       0.01617169       0.51251560       0.62164281 </v>
    <v>       0.52050176       0.98786920       0.12694970 </v>
    <v>       0.50842555       0.01691662       0.62525502 </v>
    <v>       0.48595769       0.51882680       0.12177915 </v>
    <v>       0.50493284       0.49810767       0.62790284 </v>
    <v>       0.98767927       0.00268316       0.37403035 </v>
    <v>       0.98767493       0.00212798       0.87846647 </v>
    <v>       0.98045350       0.48514170       0.37531555 </v>
    <v>       0.97949433       0.48123409       0.87513229 </v>
    <v>       0.54421006       0.96590704       0.34777540 </v>
    <v>       0.48034240       0.98998803       0.87429702 </v>
    <v>       0.50978701       0.47766130       0.88062109 </v>
    <v>       0.22492980       0.27469598       0.37867953 </v>
    <v>       0.24818078       0.26072183       0.88121196 </v>
    <v>       0.28083989       0.72373424       0.35710328 </v>
    <v>       0.25468457       0.76845662       0.87336488 </v>
    <v>       0.77562462       0.25591245       0.37228040 </v>
    <v>       0.77659783       0.27271099       0.87562203 </v>
    <v>       0.77174515       0.73653756       0.37817571 </v>
    <v>       0.76558395       0.74363466       0.87527750 </v>
    <v>       0.25662282       0.25014790       0.12968925 </v>
    <v>       0.24360968       0.26362515       0.61637337 </v>
    <v>       0.26513062       0.72546042       0.13060183 </v>
    <v>       0.24152272       0.73514103       0.62369482 </v>
    <v>       0.72604928       0.24500973       0.62265171 </v>
    <v>       0.72548607       0.75954364       0.13246370 </v>
    <v>       0.75468758       0.72614015       0.62171348 </v>
   </varray>
  </structure>
  <varray name="forces" >
   <v>      -0.01177642       0.01410453      -0.02129151 </v>
   <v>      -0.00007477       0.00299169       0.00877129 </v>
   <v>      -0.01083214       0.00968462       0.00296691 </v>
   <v>       0.00778133       0.00082084       0.00254959 </v>
   <v>      -0.00255926      -0.01871142      -0.00144980 </v>
   <v>      -0.00166422      -0.00829345      -0.01097595 </v>
   <v>      -0.00562228       0.00606279       0.00877214 </v>
   <v>      -0.00968786       0.00975576      -0.00319181 </v>
   <v>      -0.02392550       0.01136464      -0.00037622 </v>
   <v>      -0.00312248      -0.00853247      -0.00457205 </v>
   <v>      -0.00521489       0.00228948       0.00679146 </v>
   <v>       0.00738644       0.00131723      -0.00794093 </v>
   <v>      -0.00045432       0.00579640       0.00243494 </v>
   <v>       0.00764012      -0.01964337      -0.00496857 </v>
   <v>       0.00040867      -0.00768121      -0.00315636 </v>
   <v>      -0.00558620      -0.00293765       0.00089554 </v>
   <v>       0.01243983      -0.01335103       0.00299980 </v>
   <v>       0.00514141      -0.00210435       0.00217358 </v>
   <v>      -0.01334447       0.01629046       0.01257753 </v>
   <v>       0.00245315      -0.00474974       0.00205942 </v>
   <v>      -0.01077260       0.00665126       0.00926518 </v>
   <v>       0.00479186       0.00055435       0.00743866 </v>
   <v>       0.01906563      -0.01213609       0.00294837 </v>
   <v>       0.00422764      -0.01390111       0.01136890 </v>
   <v>       0.00541781       0.00343514       0.00561434 </v>
   <v>      -0.00488584      -0.00929531      -0.00348882 </v>
   <v>       0.00133747      -0.00252887      -0.00715031 </v>
   <v>      -0.00806719      -0.00397482      -0.00383789 </v>
   <v>      -0.00819452       0.00177401      -0.00009405 </v>
   <v>      -0.00485694       0.00055048      -0.01078294 </v>
   <v>      -0.00047385       0.01292261       0.00784314 </v>
   <v>       0.01558242      -0.01388280      -0.00531415 </v>
   <v>       0.01632671      -0.00494341      -0.02648244 </v>
   <v>      -0.01134508      -0.00744715      -0.00715867 </v>
   <v>      -0.00133807      -0.00947452       0.02102084 </v>
   <v>       0.00737882       0.00055968       0.00263962 </v>
   <v>      -0.01836513      -0.01191147       0.00561108 </v>
   <v>      -0.00111773      -0.00338021      -0.00871118 </v>
   <v>       0.01374565       0.01091497       0.00107189 </v>
   <v>      -0.00172924       0.01324025      -0.00712799 </v>
   <v>      -0.00239849       0.00692133       0.00767798 </v>
   <v>       0.01987146       0.00909040      -0.00445616 </v>
   <v>      -0.00303822      -0.01296575       0.02164226 </v>
   <v>      -0.01685575      -0.02754292       0.00651657 </v>
   <v>      -0.00880139      -0.01929822      -0.02048264 </v>
   <v>      -0.00969194       0.00628261      -0.03180131 </v>
   <v>      -0.01704402       0.00690479       0.00357440 </v>
   <v>       0.00703898      -0.00419539       0.02906081 </v>
   <v>      -0.00808000       0.00034961      -0.00101802 </v>
   <v>       0.00631010       0.00572253       0.02777520 </v>
   <v>      -0.00236981      -0.00119522      -0.00117702 </v>
   <v>      -0.00167647       0.00921346      -0.00355523 </v>
   <v>       0.00730221       0.00488992       0.01232802 </v>
   <v>      -0.00698869       0.01084622       0.00495856 </v>
   <v>      -0.00501784       0.00245710       0.00709173 </v>
   <v>      -0.01034592       0.01050002      -0.00118301 </v>
   <v>      -0.00546202      -0.00358273      -0.01006858 </v>
   <v>      -0.00784251       0.01078469      -0.00763439 </v>
   <v>      -0.00578715       0.01245791      -0.00906621 </v>
   <v>      -0.01456590       0.00083576       0.00678346 </v>
   <v>      -0.00193471       0.00847226       0.02486283 </v>
   <v>      -0.00044198       0.00457349       0.01447202 </v>
   <v>       0.01472773       0.01497519       0.01470366 </v>
   <v>       0.01079982       0.01931873       0.00071903 </v>
   <v>       0.00237152      -0.01113020       0.00866640 </v>
   <v>       0.02305282      -0.01571133      -0.00127656 </v>
   <v>       0.00245140      -0.01323322      -0.01386510 </v>
   <v>       0.00584903      -0.00640862       0.00621879 </v>
   <v>       0.00609644       0.01606276      -0.02078588 </v>
   <v>       0.01258071      -0.00794755      -0.00714002 </v>
   <v>      -0.00300527      -0.00373131      -0.01778467 </v>
   <v>       0.01819835       0.00229732       0.00685064 </v>
   <v>      -0.01128580      -0.00297479      -0.00663111 </v>
   <v>      -0.00590856      -0.00278213       0.00750006 </v>
   <v>      -0.00605174      -0.00277467       0.01615366 </v>
   <v>       0.00471468      -0.00392125       0.00192031 </v>
   <v>      -0.02955589       0.01198084       0.00751256 </v>
   <v>       0.00680360       0.00889273      -0.00654473 </v>
   <v>       0.00629484       0.01839857       0.00692599 </v>
   <v>       0.00033652       0.00362436       0.00275929 </v>
   <v>      -0.01344270       0.00721597       0.00326933 </v>
   <v>      -0.00344769       0.00680321       0.00630666 </v>
   <v>      -0.00922500      -0.00549866       0.01733914 </v>
   <v>      -0.00685372       0.01318126       0.00607443 </v>
   <v>      -0.00023387       0.00425030       0.00239953 </v>
   <v>      -0.00024318       0.00223694       0.01726747 </v>
   <v>       0.00607206       0.00401815       0.00342537 </v>
   <v>      -0.00753995      -0.01143400       0.01670881 </v>
   <v>       0.00272778      -0.00920488       0.00337649 </v>
   <v>      -0.00068014       0.00489679       0.00313194 </v>
   <v>      -0.00034832      -0.00988094      -0.02378943 </v>
   <v>       0.00610410       0.00777638       0.01559944 </v>
   <v>      -0.00317640       0.00044206      -0.00360667 </v>
   <v>       0.00628566      -0.01401338      -0.00116098 </v>
   <v>      -0.00026135       0.00326714       0.00500750 </v>
   <v>       0.00859869      -0.00437898       0.00867637 </v>
   <v>      -0.00688597      -0.00594023      -0.02018993 </v>
   <v>       0.00840873      -0.01669969      -0.02028844 </v>
   <v>       0.01500691      -0.01409060       0.01204879 </v>
   <v>       0.00022548       0.00796667      -0.00902342 </v>
   <v>       0.00180174      -0.01795183      -0.00222673 </v>
   <v>      -0.00033305      -0.00689330      -0.01710211 </v>
   <v>      -0.01505098       0.01841114      -0.00149619 </v>
   <v>      -0.02229640      -0.01146341       0.00832048 </v>
   <v>       0.00383412       0.03122864       0.00249814 </v>
   <v>       0.01807694      -0.00019825      -0.00830649 </v>
   <v>       0.00832891       0.01870192      -0.00786003 </v>
   <v>       0.00505758       0.01074449      -0.00386535 </v>
   <v>       0.00700670       0.02158737       0.01443292 </v>
   <v>       0.00292266      -0.00706262      -0.00149641 </v>
   <v>      -0.00439519       0.01797826      -0.00351535 </v>
   <v>       0.00715506      -0.00009170      -0.01293056 </v>
   <v>      -0.00938643       0.00401426       0.01036940 </v>
   <v>      -0.02119262       0.00593760       0.00425903 </v>
   <v>      -0.00238712      -0.00764766      -0.00371819 </v>
   <v>      -0.00264322       0.00138653       0.00440847 </v>
   <v>       0.00456607      -0.01355372      -0.01380953 </v>
   <v>       0.00041206      -0.00716511      -0.00954819 </v>
   <v>      -0.01232364       0.00601296      -0.00603252 </v>
   <v>       0.01582320       0.01611250      -0.00933107 </v>
   <v>       0.01952380      -0.02152148       0.00617507 </v>
   <v>      -0.00323551      -0.00670525       0.01065382 </v>
   <v>       0.00880522      -0.01362221      -0.01676437 </v>
   <v>      -0.02112894       0.01609968       0.00826252 </v>
   <v>       0.00880230       0.00488029      -0.00123092 </v>
   <v>       0.00324564       0.01357168      -0.02322667 </v>
   <v>       0.00425633       0.00576078       0.00023850 </v>
   <v>      -0.00499593       0.00932642      -0.00813209 </v>
   <v>      -0.00262250      -0.01401280       0.00405011 </v>
   <v>       0.00666022       0.01299271       0.00237653 </v>
   <v>       0.01888349      -0.01804587      -0.01146461 </v>
   <v>       0.01004829      -0.00372588       0.00636274 </v>
   <v>       0.00676962      -0.01757886      -0.01123500 </v>
   <v>       0.00304743       0.00795977       0.01554523 </v>
   <v>       0.01498987       0.00693497      -0.02175165 </v>
   <v>      -0.00878908      -0.01660829      -0.01579153 </v>
   <v>       0.00406677       0.00442008       0.00969521 </v>
   <v>       0.00970661      -0.00087042      -0.01472706 </v>
   <v>      -0.00294286      -0.00315904      -0.01069656 </v>
   <v>      -0.01416244       0.01018481      -0.01811646 </v>
   <v>       0.00360050      -0.01745091       0.00855502 </v>
   <v>       0.00441375      -0.00502777      -0.00649889 </v>
   <v>       0.00240585       0.00873877      -0.01323616 </v>
   <v>      -0.01238102       0.01755189      -0.00148684 </v>
   <v>      -0.00258662       0.00323619       0.00577613 </v>
   <v>      -0.00294798      -0.01288239       0.00218342 </v>
   <v>       0.01684175      -0.01402553       0.01133924 </v>
   <v>      -0.00523960      -0.00360146       0.01231665 </v>
   <v>       0.00694856      -0.00271142      -0.00008182 </v>
   <v>      -0.00307356       0.00129810       0.00391652 </v>
   <v>       0.02129457      -0.01513333      -0.00818492 </v>
   <v>      -0.01303616      -0.00593284       0.01761056 </v>
  </varray>
  <varray name="stress" >
   <v>       0.11241046      -0.07964254      -0.04570494 </v>
   <v>      -0.07964202      -0.01474153       0.03644257 </v>
   <v>      -0.04570439       0.03644235      -0.10490897 </v>
  </varray>
  <energy>
   <i name="e_fr_energy">  -1051.71716674 </i>
   <i name="e_wo_entrp">  -1051.70306979 </i>
   <i name="e_0_energy">     -0.02819390 </i>
  </energy>
  <time name="totalsc"> 1999.22 2002.33</time>
 </calculation>
 <calculation>
  <scstep>
   <time name="dav">  580.87  580.87</time>
   <time name="total">  588.11  588.26</time>
   <energy>
    <i name="alphaZ">   5606.96714537 </i>
    <i name="ewald"> -61595.93625458 </i>
    <i name="hartreedc"> -17977.45975044 </i>
    <i name="XCdc">   3182.21773585 </i>
    <i name="pawpsdc"> 114625.44696884 </i>
    <i name="pawaedc">-113826.49306857 </i>
    <i name="eentropy">     -0.02819356 </i>
    <i name="bandstr">  -7116.60784080 </i>
    <i name="atom">  76050.17612637 </i>
    <i name="e_fr_energy">  -1051.71713152 </i>
    <i name="e_wo_entrp">  -1051.68893796 </i>
    <i name="e_0_energy">  -1051.70303474 </i>
   </energy>
  </scstep>
  <scstep>
   <time name="diag">   65.03   65.03</time>
   <time name="diis">  105.54  105.63</time>
   <time name="orth">   33.41   33.43</time>
   <time name="total">  211.26  211.40</time>
   <energy>
    <i name="e_fr_energy">  -1051.71874615 </i>
    <i name="e_wo_entrp">  -1051.69063678 </i>
    <i name="e_0_energy">  -1051.70469146 </i>
   </energy>
  </scstep>
  <scstep>
   <time name="diag">   65.05   65.05</time>
   <time name="diis">   93.41   93.40</time>
   <time name="orth">   33.43   33.43</time>
   <time name="total">  199.19  199.27</time>
   <energy>
    <i name="e_fr_energy">  -1051.71885217 </i>
    <i name="e_wo_entrp">  -1051.69057972 </i>
    <i name="e_0_energy">  -1051.70471594 </i>
   </energy>
  </scstep>
  <scstep>
   <time name="diag">   64.94   64.94</time>
   <time name="diis">   65.00   65.01</time>
   <time name="orth">   33.47   33.47</time>
   <time name="total">  170.68  170.90</time>
   <energy>
    <i name="e_fr_energy">  -1051.71882318 </i>
    <i name="e_wo_entrp">  -1051.69069982 </i>
    <i name="e_0_energy">  -1051.70476150 </i>
   </energy>
  </scstep>
  <scstep>
   <time name="diag">   65.07   65.07</time>
   <time name="diis">   64.18   64.18</time>
   <time name="orth">   33.43   33.43</time>
   <time name="total">  169.98  170.07</time>
   <energy>
    <i name="e_fr_energy">  -1051.71878754 </i>
    <i name="e_wo_entrp">  -1051.69059710 </i>
    <i name="e_0_energy">  -1051.70469232 </i>
   </energy>
  </scstep>
  <scstep>
   <time name="diag">   65.09   65.09</time>
   <time name="diis">   63.78   63.78</time>
   <time name="orth">   33.43   33.43</time>
   <time name="total">  169.60  169.68</time>
   <energy>
    <i name="e_fr_energy">  -1051.71878332 </i>
    <i name="e_wo_entrp">  -1051.69060673 </i>
    <i name="e_0_energy">  -1051.70469502 </i>
   </energy>
  </scstep>
  <scstep>
   <time name="diag">   65.03   65.04</time>
   <time name="diis">   62.70   62.70</time>
   <time name="orth">   33.48   33.48</time>
   <time name="total">  168.48  168.55</time>
   <energy>
    <i name="e_fr_energy">  -1051.71878436 </i>
    <i name="e_wo_entrp">  -1051.69060447 </i>
    <i name="e_0_energy">  -1051.70469442 </i>
   </energy>
  </scstep>
  <scstep>
   <time name="diag">   65.02   65.03</time>
   <time name="diis">   58.27   58.27</time>
   <time name="orth">   33.43   33.43</time>
   <time name="total">  157.79  157.86</time>
   <energy>
    <i name="alphaZ">   5606.96714537 </i>
    <i name="ewald"> -61595.93625458 </i>
    <i name="hartreedc"> -17977.45206681 </i>
    <i name="XCdc">   3182.21562298 </i>
    <i name="pawpsdc"> 114622.57365774 </i>
    <i name="pawaedc">-113823.62623257 </i>
    <i name="eentropy">     -0.02818052 </i>
    <i name="bandstr">  -7116.60860270 </i>
    <i name="atom">  76050.17612637 </i>
    <i name="e_fr_energy">  -1051.71878472 </i>
    <i name="e_wo_entrp">  -1051.69060420 </i>
    <i name="e_0_energy">  -1051.70469446 </i>
   </energy>
  </scstep>
  <structure>
   <crystal>
    <varray name="basis" >
     <v>      11.22977174      -0.00423096       0.01227731 </v>
     <v>      -0.00422396      11.24112481      -0.00900441 </v>
     <v>       0.01773342      -0.01328523      15.91170991 </v>
    </varray>
    <i name="volume">   2008.61485371 </i>
    <varray name="rec_basis" >
     <v>       0.08904913       0.00003338      -0.00009922 </v>
     <v>       0.00003344       0.08895914       0.00007424 </v>
     <v>      -0.00006869       0.00005032       0.06284692 </v>
    </varray>
   </crystal>
   <varray name="positions" >
    <v>       0.01735873       0.23719023       0.12898934 </v>
    <v>       0.00553233       0.23569098       0.63155957 </v>
    <v>       0.99176370       0.75725799       0.11893486 </v>
    <v>       0.00637047       0.75689787       0.63284694 </v>
    <v>       0.49085367       0.26443022       0.12275878 </v>
    <v>       0.49420673       0.24336149       0.63579744 </v>
    <v>       0.49631492       0.75353123       0.11082855 </v>
    <v>       0.50190553       0.75715474       0.62772314 </v>
    <v>       0.00477588       0.23255161       0.37597285 </v>
    <v>       0.01211471       0.24622332       0.87481562 </v>
    <v>       0.99813912       0.76159243       0.37629063 </v>
    <v>       0.00334881       0.76184188       0.87287749 </v>
    <v>       0.49809295       0.25108503       0.37894734 </v>
    <v>       0.48257704       0.24294445       0.87399540 </v>
    <v>       0.50213669       0.75827348       0.38853700 </v>
    <v>       0.49677658       0.75443802       0.87110158 </v>
    <v>       0.24546808       0.00998754       0.11829686 </v>
    <v>       0.25415788       0.99849449       0.62894807 </v>
    <v>       0.25035643       0.49404597       0.11999756 </v>
    <v>       0.25537013       0.50031567       0.63767090 </v>
    <v>       0.75114885       0.99173098       0.11986864 </v>
    <v>       0.74911199       0.99711926       0.62842066 </v>
    <v>       0.73030399       0.51905954       0.12820082 </v>
    <v>       0.74883388       0.49349740       0.63505513 </v>
    <v>       0.24685279       0.00291196       0.37812228 </v>
    <v>       0.24651954       0.00488623       0.87163853 </v>
    <v>       0.24796175       0.50183036       0.37573804 </v>
    <v>       0.25568199       0.49901313       0.87586035 </v>
    <v>       0.75655509       0.99523755       0.38541654 </v>
    <v>       0.74763679       0.98538403       0.86962450 </v>
    <v>       0.74342912       0.50179536       0.37645043 </v>
    <v>       0.74539573       0.50729075       0.87719080 </v>
    <v>       0.99914991       0.00040789       0.00004382 </v>
    <v>       0.00488996       0.99574186       0.50312226 </v>
    <v>       0.99937027       0.50047301       0.50355625 </v>
    <v>       0.49682442       0.99619057       0.99559782 </v>
    <v>       0.50084881       0.49921492       0.51223362 </v>
    <v>       0.74615553       0.24585879       0.50388337 </v>
    <v>       0.23788658       0.76153082       0.24557633 </v>
    <v>       0.25010587       0.75308753       0.75205015 </v>
    <v>       0.75259865       0.25736599       0.25704762 </v>
    <v>       0.75129941       0.24748341       0.75371899 </v>
    <v>       0.75292270       0.74681416       0.74962993 </v>
    <v>       0.99157682       0.00433167       0.24931312 </v>
    <v>       0.99563895       0.49486064       0.25721045 </v>
    <v>       0.00004755       0.49670102       0.75170455 </v>
    <v>       0.48871159       0.01591836       0.24396621 </v>
    <v>       0.50190279       0.49595449       0.75943079 </v>
    <v>       0.00901804       0.51390171       0.98886368 </v>
    <v>       0.50192622       0.00067821       0.50581568 </v>
    <v>       0.49084955       0.51121986       0.00025968 </v>
    <v>       0.25243875       0.24957528       0.00295272 </v>
    <v>       0.26219876       0.24004886       0.49721018 </v>
    <v>       0.25094644       0.75513048       0.99769874 </v>
    <v>       0.25403353       0.74776172       0.50140125 </v>
    <v>       0.74472758       0.23005450       0.98790515 </v>
    <v>       0.74493580       0.74906440       0.00024553 </v>
    <v>       0.74287381       0.75659461       0.50176193 </v>
    <v>       0.24596567       0.25900309       0.25400705 </v>
    <v>       0.24748375       0.25084309       0.75010126 </v>
    <v>       0.75788176       0.74038791       0.25232389 </v>
    <v>       0.00001619       0.00123916       0.75018192 </v>
    <v>       0.49810331       0.00082892       0.75044879 </v>
    <v>       0.50341330       0.50452449       0.24376945 </v>
    <v>       0.12812250       0.11721926       0.25429472 </v>
    <v>       0.11702309       0.13368524       0.75367142 </v>
    <v>       0.12282976       0.61295776       0.24400294 </v>
    <v>       0.11710317       0.62986550       0.76193626 </v>
    <v>       0.63359147       0.13727391       0.23242205 </v>
    <v>       0.62043663       0.13431991       0.76633419 </v>
    <v>       0.60170631       0.64336882       0.26507928 </v>
    <v>       0.61758808       0.62914343       0.75644087 </v>
    <v>       0.36890639       0.40272945       0.26003022 </v>
    <v>       0.38338185       0.36937982       0.74922902 </v>
    <v>       0.36219402       0.88983993       0.24145560 </v>
    <v>       0.38075700       0.86627695       0.73674600 </v>
    <v>       0.87175975       0.37871778       0.21281868 </v>
    <v>       0.88443495       0.36563282       0.73192584 </v>
    <v>       0.85291316       0.88748304       0.25022095 </v>
    <v>       0.88107206       0.86535158       0.74524204 </v>
    <v>       0.38245890       0.14084383       0.26316977 </v>
    <v>       0.36557600       0.12211314       0.74824882 </v>
    <v>       0.37018320       0.61501357       0.75744817 </v>
    <v>       0.87859757       0.13573546       0.23821814 </v>
    <v>       0.86489253       0.11754532       0.74312123 </v>
    <v>       0.87829532       0.62051422       0.23672614 </v>
    <v>       0.86878614       0.61179685       0.74797772 </v>
    <v>       0.11171324       0.37448319       0.24029013 </v>
    <v>       0.13263099       0.38479667       0.75120896 </v>
    <v>       0.10807309       0.86366447       0.25491162 </v>
    <v>       0.13044539       0.88024324       0.75005247 </v>
    <v>       0.63253341       0.38100416       0.26205045 </v>
    <v>       0.63557386       0.38256607       0.75028630 </v>
    <v>       0.63354025       0.87705578       0.74770882 </v>
    <v>       0.37315203       0.38365103       0.00497348 </v>
    <v>       0.37717826       0.38147905       0.48775075 </v>
    <v>       0.36531030       0.88381871       0.01212672 </v>
    <v>       0.37814710       0.87396824       0.49927915 </v>
    <v>       0.87441960       0.38102332       0.51068957 </v>
    <v>       0.86992438       0.87628504       0.00610185 </v>
    <v>       0.88560466       0.86120698       0.50482008 </v>
    <v>       0.12861538       0.12212004       0.00058336 </v>
    <v>       0.12001104       0.13042574       0.49563235 </v>
    <v>       0.12920693       0.62612095       0.99774397 </v>
    <v>       0.11821273       0.62091346       0.48221478 </v>
    <v>       0.63086812       0.10988537       0.98671052 </v>
    <v>       0.62581923       0.12783006       0.48217292 </v>
    <v>       0.62760169       0.61406937       0.99731246 </v>
    <v>       0.62902647       0.61559979       0.48824881 </v>
    <v>       0.09296815       0.37834297       0.02138432 </v>
    <v>       0.11865263       0.87210761       0.00376424 </v>
    <v>       0.13091904       0.87489506       0.48613209 </v>
    <v>       0.66812654       0.35137454       0.04264815 </v>
    <v>       0.62262396       0.37694197       0.48236421 </v>
    <v>       0.61496543       0.86428168       0.99031213 </v>
    <v>       0.62849739       0.87749084       0.50431749 </v>
    <v>       0.38521378       0.13124678       0.00660478 </v>
    <v>       0.37894549       0.12012352       0.48073521 </v>
    <v>       0.37901954       0.63541171       0.98519448 </v>
    <v>       0.38254709       0.62049087       0.49373480 </v>
    <v>       0.88077300       0.14008006       0.01903119 </v>
    <v>       0.87133908       0.12210227       0.50569215 </v>
    <v>       0.87654939       0.60449363       0.02321912 </v>
    <v>       0.00610458       0.99342813       0.12769310 </v>
    <v>       0.01253942       0.99707145       0.62315934 </v>
    <v>       0.01618577       0.51257377       0.62157242 </v>
    <v>       0.52052006       0.98789393       0.12695043 </v>
    <v>       0.50840414       0.01695661       0.62523040 </v>
    <v>       0.48594639       0.51876667       0.12179141 </v>
    <v>       0.50496146       0.49816345       0.62791005 </v>
    <v>       0.98776043       0.00260570       0.37399548 </v>
    <v>       0.98771806       0.00211202       0.87848572 </v>
    <v>       0.98048261       0.48506623       0.37528142 </v>
    <v>       0.97950735       0.48126831       0.87517943 </v>
    <v>       0.54427457       0.96593674       0.34770942 </v>
    <v>       0.48030469       0.98991669       0.87424913 </v>
    <v>       0.50980444       0.47768031       0.88065048 </v>
    <v>       0.22497157       0.27469220       0.37863485 </v>
    <v>       0.24816818       0.26070823       0.88117953 </v>
    <v>       0.28077915       0.72377786       0.35704843 </v>
    <v>       0.25469997       0.76838176       0.87339076 </v>
    <v>       0.77564361       0.25589085       0.37226067 </v>
    <v>       0.77660825       0.27274845       0.87558192 </v>
    <v>       0.77169200       0.73661287       0.37817128 </v>
    <v>       0.76557282       0.74364857       0.87529503 </v>
    <v>       0.25661012       0.25009261       0.12969585 </v>
    <v>       0.24368196       0.26356502       0.61640765 </v>
    <v>       0.26510805       0.72544500       0.13063918 </v>
    <v>       0.24155257       0.73512941       0.62369454 </v>
    <v>       0.72603606       0.24501531       0.62266359 </v>
    <v>       0.72557758       0.75947869       0.13243878 </v>
    <v>       0.75463148       0.72611474       0.62176690 </v>
   </varray>
  </structure>
  <varray name="forces" >
   <v>      -0.01221583      -0.00129412      -0.01294973 </v>
   <v>       0.00452182      -0.00564230       0.00315268 </v>
   <v>      -0.01178361       0.00891030       0.00059966 </v>
   <v>       0.00304123       0.00661077       0.00200193 </v>
   <v>      -0.00453595      -0.00908357       0.00014157 </v>
   <v>      -0.00336436      -0.00261155      -0.00230593 </v>
   <v>      -0.00169240       0.00113682       0.00443618 </v>
   <v>      -0.00104261       0.00299523      -0.00318686 </v>
   <v>      -0.01234319       0.00365107      -0.00544550 </v>
   <v>       0.00069713      -0.00386805      -0.00044464 </v>
   <v>       0.00173897      -0.00183870       0.00278447 </v>
   <v>       0.00373921      -0.00312814      -0.00507941 </v>
   <v>      -0.00381987       0.00662178      -0.00226609 </v>
   <v>       0.00165105      -0.01768322      -0.00705507 </v>
   <v>      -0.00227353      -0.00309846       0.00169278 </v>
   <v>      -0.00847934      -0.00326768       0.00042417 </v>
   <v>       0.00156277      -0.00712292       0.00515549 </v>
   <v>       0.00324254       0.00122984       0.00257583 </v>
   <v>      -0.01104910       0.01468523       0.00927686 </v>
   <v>       0.00890193      -0.00229693       0.00663520 </v>
   <v>       0.00251140       0.00844289       0.00461560 </v>
   <v>       0.00480411      -0.00397989       0.01036308 </v>
   <v>       0.01078782      -0.00402558       0.00214588 </v>
   <v>      -0.01018139      -0.00453183       0.00298691 </v>
   <v>      -0.00100953       0.00719703       0.00159033 </v>
   <v>       0.00046263      -0.00409360      -0.00383207 </v>
   <v>      -0.00377403       0.00016328      -0.00947853 </v>
   <v>      -0.01038573      -0.00148582      -0.00327861 </v>
   <v>      -0.00303309       0.00203431      -0.00232523 </v>
   <v>       0.00078809      -0.00397988      -0.00618285 </v>
   <v>      -0.00059666       0.01332047       0.00825631 </v>
   <v>       0.01294600      -0.00880296      -0.00051815 </v>
   <v>      -0.00038650      -0.00576417       0.02570792 </v>
   <v>       0.00509914       0.00144262      -0.00454694 </v>
   <v>       0.01062864       0.00543005      -0.02853199 </v>
   <v>       0.00034100      -0.01040582      -0.00432808 </v>
   <v>       0.01350776       0.01953759       0.00712428 </v>
   <v>      -0.00037238       0.00104978      -0.00135450 </v>
   <v>      -0.02097260       0.00602988       0.00254683 </v>
   <v>       0.01277609      -0.00743524       0.00235688 </v>
   <v>      -0.00276849      -0.00467873      -0.01141369 </v>
   <v>      -0.00963700      -0.00998866      -0.00662188 </v>
   <v>      -0.00060643       0.00386144       0.00382231 </v>
   <v>      -0.00304011       0.01217908      -0.01111758 </v>
   <v>       0.00418598      -0.00837879      -0.00106173 </v>
   <v>       0.02547994      -0.00378182       0.01980526 </v>
   <v>      -0.01280496       0.01225408      -0.00401624 </v>
   <v>      -0.00640824       0.00338970       0.00467663 </v>
   <v>       0.00224943      -0.00869533       0.00266230 </v>
   <v>      -0.00214660       0.00270906       0.00541577 </v>
   <v>      -0.00503477       0.00675219       0.00907491 </v>
   <v>      -0.00446906       0.00559516      -0.00279375 </v>
   <v>      -0.00439597      -0.00621738      -0.00533014 </v>
   <v>      -0.00540618      -0.00399318       0.00164907 </v>
   <v>      -0.00483366       0.00134262       0.00004914 </v>
   <v>       0.01891281       0.00064551       0.00148217 </v>
   <v>      -0.00060395       0.00040287      -0.00092723 </v>
   <v>      -0.00982765      -0.00211617       0.01292365 </v>
   <v>      -0.01145676      -0.00132840      -0.00265155 </v>
   <v>       0.00314372      -0.00441872       0.00703595 </v>
   <v>       0.00056913       0.00308026       0.00324764 </v>
   <v>       0.00094143      -0.00145477      -0.00017065 </v>
   <v>       0.00753554       0.01061430       0.00801110 </v>
   <v>      -0.00351892      -0.00297124      -0.00188236 </v>
   <v>      -0.00106373      -0.00870759       0.00491819 </v>
   <v>       0.01049858      -0.02022270       0.00007936 </v>
   <v>      -0.00080065      -0.01532355      -0.01257977 </v>
   <v>      -0.00132886      -0.01081765      -0.00055856 </v>
   <v>      -0.00371243       0.01136856      -0.01767231 </v>
   <v>       0.01183785      -0.00588512      -0.00433428 </v>
   <v>       0.00340508       0.00838404      -0.01282251 </v>
   <v>       0.00252220      -0.00877231       0.01248040 </v>
   <v>       0.00197967       0.00651527      -0.00795264 </v>
   <v>       0.00422892       0.00574335       0.00687970 </v>
   <v>       0.00627995       0.00988367       0.00988821 </v>
   <v>       0.00429179       0.00048809       0.00088360 </v>
   <v>      -0.01721692       0.01328614      -0.00194018 </v>
   <v>       0.00519983       0.00595489      -0.01066057 </v>
   <v>      -0.00804582       0.00498000       0.00802011 </v>
   <v>       0.00356743       0.00572147       0.00552293 </v>
   <v>      -0.00400793      -0.00010619       0.00180950 </v>
   <v>       0.00469465       0.00126078       0.00611037 </v>
   <v>       0.00226118      -0.00778300       0.01194915 </v>
   <v>      -0.00423072       0.01114025       0.00948335 </v>
   <v>       0.00610231       0.00611572       0.00377280 </v>
   <v>      -0.00545434       0.00824177       0.01869743 </v>
   <v>       0.01249784      -0.00627990       0.00353695 </v>
   <v>      -0.01109428      -0.01352998       0.00668445 </v>
[...]
       <r>   -17.0396     0.0000    32.0000 </r>
       <r>   -16.8863     0.0000    32.0000 </r>
       <r>   -16.7330     0.0000    32.0000 </r>
       <r>   -16.5796     0.0000    32.0000 </r>
       <r>   -16.4263     0.0000    32.0000 </r>
       <r>   -16.2729     0.0000    32.0000 </r>
       <r>   -16.1196     0.0000    32.0000 </r>
       <r>   -15.9663     0.0000    32.0000 </r>
       <r>   -15.8129     0.0000    32.0000 </r>
       <r>   -15.6596     0.0000    32.0000 </r>
       <r>   -15.5063     0.0000    32.0000 </r>
       <r>   -15.3529     0.0024    32.0004 </r>
       <r>   -15.1996     7.3748    33.1312 </r>
       <r>   -15.0463    20.3813    36.2564 </r>
       <r>   -14.8929    36.9477    41.9218 </r>
       <r>   -14.7396    47.9966    49.2815 </r>
       <r>   -14.5862    39.5944    55.3528 </r>
       <r>   -14.4329    38.5539    61.2645 </r>
       <r>   -14.2796    42.3577    67.7595 </r>
       <r>   -14.1262    74.8728    79.2403 </r>
       <r>   -13.9729    97.8530    94.2447 </r>
       <r>   -13.8196    76.6937   106.0047 </r>
       <r>   -13.6662    58.1901   114.9274 </r>
       <r>   -13.5129    30.8897   119.6639 </r>
       <r>   -13.3595     2.1918   120.0000 </r>
       <r>   -13.2062     0.0000   120.0000 </r>
       <r>   -13.0529     0.0000   120.0000 </r>
       <r>   -12.8995     0.0000   120.0000 </r>
       <r>   -12.7462     7.6055   121.1662 </r>
       <r>   -12.5929    86.5330   134.4349 </r>
       <r>   -12.4395   134.9590   155.1291 </r>
       <r>   -12.2862   119.4157   173.4399 </r>
       <r>   -12.1329   103.9358   189.3771 </r>
       <r>   -11.9795    88.5663   202.9576 </r>
       <r>   -11.8262    49.3652   210.5271 </r>
       <r>   -11.6728    23.9299   214.1965 </r>
       <r>   -11.5195    11.6889   215.9888 </r>
       <r>   -11.3662     0.0729   216.0000 </r>
       <r>   -11.2128     0.0000   216.0000 </r>
       <r>   -11.0595     0.0000   216.0000 </r>
       <r>   -10.9062     0.0000   216.0000 </r>
       <r>   -10.7528     0.0000   216.0000 </r>
       <r>   -10.5995     0.0000   216.0000 </r>
       <r>   -10.4461     0.0000   216.0000 </r>
       <r>   -10.2928     0.0000   216.0000 </r>
       <r>   -10.1395     0.0000   216.0000 </r>
       <r>    -9.9861     0.0000   216.0000 </r>
       <r>    -9.8328     0.0000   216.0000 </r>
       <r>    -9.6795     0.0000   216.0000 </r>
       <r>    -9.5261     0.0000   216.0000 </r>
       <r>    -9.3728     0.0000   216.0000 </r>
       <r>    -9.2194     0.0000   216.0000 </r>
       <r>    -9.0661     0.0000   216.0000 </r>
       <r>    -8.9128     0.0000   216.0000 </r>
       <r>    -8.7594     0.0000   216.0000 </r>
       <r>    -8.6061     0.0000   216.0000 </r>
       <r>    -8.4528     0.0000   216.0000 </r>
       <r>    -8.2994     0.0000   216.0000 </r>
       <r>    -8.1461     0.0000   216.0000 </r>
       <r>    -7.9928     0.0000   216.0000 </r>
       <r>    -7.8394     0.0000   216.0000 </r>
       <r>    -7.6861     0.0000   216.0000 </r>
       <r>    -7.5327     0.0000   216.0000 </r>
       <r>    -7.3794     0.0000   216.0000 </r>
       <r>    -7.2261     0.0000   216.0000 </r>
       <r>    -7.0727     0.0000   216.0000 </r>
       <r>    -6.9194     0.0000   216.0000 </r>
       <r>    -6.7661     0.0000   216.0000 </r>
       <r>    -6.6127     0.0000   216.0000 </r>
       <r>    -6.4594     0.0000   216.0000 </r>
       <r>    -6.3060     0.0000   216.0000 </r>
       <r>    -6.1527     0.0000   216.0000 </r>
       <r>    -5.9994     0.0000   216.0000 </r>
       <r>    -5.8460     0.0000   216.0000 </r>
       <r>    -5.6927     0.0000   216.0000 </r>
       <r>    -5.5394     0.0000   216.0000 </r>
       <r>    -5.3860     0.0000   216.0000 </r>
       <r>    -5.2327     0.0000   216.0000 </r>
       <r>    -5.0794     0.0000   216.0000 </r>
       <r>    -4.9260     0.0000   216.0000 </r>
       <r>    -4.7727     0.0000   216.0000 </r>
       <r>    -4.6193     0.0000   216.0000 </r>
       <r>    -4.4660     0.0000   216.0000 </r>
       <r>    -4.3127     0.0000   216.0000 </r>
       <r>    -4.1593     0.0000   216.0000 </r>
       <r>    -4.0060     0.0000   216.0000 </r>
       <r>    -3.8527     0.0000   216.0000 </r>
       <r>    -3.6993     0.0000   216.0000 </r>
       <r>    -3.5460     0.0000   216.0000 </r>
       <r>    -3.3926     0.0000   216.0000 </r>
       <r>    -3.2393     0.0000   216.0000 </r>
       <r>    -3.0860     0.0000   216.0000 </r>
       <r>    -2.9326     0.0000   216.0000 </r>
       <r>    -2.7793     0.0000   216.0000 </r>
       <r>    -2.6260     1.6395   216.2514 </r>
       <r>    -2.4726     5.7075   217.1266 </r>
       <r>    -2.3193    12.7541   219.0822 </r>
       <r>    -2.1660    17.2356   221.7251 </r>
       <r>    -2.0126    27.7809   225.9849 </r>
       <r>    -1.8593    28.4359   230.3452 </r>
       <r>    -1.7059    28.8708   234.7722 </r>
       <r>    -1.5526    45.3393   241.7244 </r>
       <r>    -1.3993    46.2133   248.8106 </r>
       <r>    -1.2459    59.5101   257.9357 </r>
       <r>    -1.0926    68.1752   268.3894 </r>
       <r>    -0.9393    79.2953   280.5483 </r>
       <r>    -0.7859    83.3160   293.3238 </r>
       <r>    -0.6326    93.1111   307.6011 </r>
       <r>    -0.4792    93.7704   321.9796 </r>
       <r>    -0.3259    78.7970   334.0621 </r>
       <r>    -0.1726    57.9540   342.9486 </r>
       <r>    -0.0192    58.8092   351.9662 </r>
       <r>     0.1341    51.6693   359.8890 </r>
       <r>     0.2874    51.3634   367.7649 </r>
       <r>     0.4408    59.5711   376.8993 </r>
       <r>     0.5941    57.1717   385.6659 </r>
       <r>     0.7474    53.2150   393.8257 </r>
       <r>     0.9008    56.2073   402.4443 </r>
       <r>     1.0541    55.9222   411.0193 </r>
       <r>     1.2075    62.7271   420.6377 </r>
       <r>     1.3608    73.3622   431.8868 </r>
       <r>     1.5141    80.8924   444.2906 </r>
       <r>     1.6675    69.5123   454.9494 </r>
       <r>     1.8208    68.0829   465.3890 </r>
       <r>     1.9741    39.8033   471.4923 </r>
       <r>     2.1275    32.9206   476.5402 </r>
       <r>     2.2808    20.6082   479.7002 </r>
       <r>     2.4342     8.4709   480.9991 </r>
       <r>     2.5875     0.0056   481.0000 </r>
       <r>     2.7408     0.0000   481.0000 </r>
       <r>     2.8942     0.0000   481.0000 </r>
       <r>     3.0475     0.0000   481.0000 </r>
       <r>     3.2008     0.0000   481.0000 </r>
       <r>     3.3542     0.0000   481.0000 </r>
       <r>     3.5075     0.0000   481.0000 </r>
       <r>     3.6608     0.0000   481.0000 </r>
       <r>     3.8142     0.0000   481.0000 </r>
       <r>     3.9675     0.0000   481.0000 </r>
       <r>     4.1209     1.8959   481.2907 </r>
       <r>     4.2742     4.6134   481.9981 </r>
       <r>     4.4275     9.4700   483.4502 </r>
       <r>     4.5809    44.8264   490.3238 </r>
       <r>     4.7342    53.7085   498.5593 </r>
       <r>     4.8875    51.0785   506.3915 </r>
       <r>     5.0409    52.0165   514.3675 </r>
       <r>     5.1942    70.3642   525.1570 </r>
       <r>     5.3476    77.2889   537.0082 </r>
       <r>     5.5009    74.4672   548.4268 </r>
       <r>     5.6542    71.9066   559.4527 </r>
       <r>     5.8076    50.6602   567.2208 </r>
       <r>     5.9609    68.4812   577.7215 </r>
       <r>     6.1142    71.5012   588.6853 </r>
       <r>     6.2676    65.7330   598.7646 </r>
       <r>     6.4209    41.6751   605.1549 </r>
       <r>     6.5743    26.8819   609.2769 </r>
       <r>     6.7276    19.7395   612.3037 </r>
       <r>     6.8809     8.5795   613.6192 </r>
       <r>     7.0343    23.7635   617.2630 </r>
       <r>     7.1876    15.6693   619.6657 </r>
       <r>     7.3409    12.4127   621.5690 </r>
       <r>     7.4943    13.9301   623.7050 </r>
       <r>     7.6476    14.4479   625.9204 </r>
       <r>     7.8009    14.8283   628.1942 </r>
       <r>     7.9543    19.6902   631.2134 </r>
       <r>     8.1076    28.2543   635.5458 </r>
       <r>     8.2610    22.9330   639.0623 </r>
       <r>     8.4143    27.0935   643.2167 </r>
       <r>     8.5676    28.3850   647.5692 </r>
       <r>     8.7210    27.6645   651.8112 </r>
       <r>     8.8743    29.2148   656.2909 </r>
       <r>     9.0276    34.3953   661.5650 </r>
       <r>     9.1810    40.6777   667.8024 </r>
       <r>     9.3343    39.3994   673.8437 </r>
       <r>     9.4877    46.8402   681.0261 </r>
       <r>     9.6410    49.7732   688.6581 </r>
       <r>     9.7943    55.2999   697.1377 </r>
       <r>     9.9477    54.2675   705.4589 </r>
       <r>    10.1010    61.1942   714.8422 </r>
       <r>    10.2543    53.3283   723.0194 </r>
       <r>    10.4077    54.3524   731.3536 </r>
       <r>    10.5610    57.7298   740.2057 </r>
       <r>    10.7143    56.2177   748.8260 </r>
       <r>    10.8677    54.4243   757.1712 </r>
       <r>    11.0210    52.4923   765.2202 </r>
       <r>    11.1744    18.1192   767.9986 </r>
       <r>    11.3277     0.0093   768.0000 </r>
       <r>    11.4810     0.0000   768.0000 </r>
       <r>    11.6344     0.0000   768.0000 </r>
       <r>    11.7877     0.0000   768.0000 </r>
       <r>    11.9410     0.0000   768.0000 </r>
       <r>    12.0944     0.0000   768.0000 </r>
       <r>    12.2477     0.0000   768.0000 </r>
       <r>    12.4011     0.0000   768.0000 </r>
       <r>    12.5544     0.0000   768.0000 </r>
       <r>    12.7077     0.0000   768.0000 </r>
       <r>    12.8611     0.0000   768.0000 </r>
       <r>    13.0144     0.0000   768.0000 </r>
       <r>    13.1677     0.0000   768.0000 </r>
      </set>
     </set>
    </array>
   </total>
  </dos>
 </calculation>
 <structure name="finalpos" >
  <crystal>
   <varray name="basis" >
    <v>      11.23024932      -0.00462128       0.01206744 </v>
    <v>      -0.00461499      11.24115847      -0.00871750 </v>
    <v>       0.01743753      -0.01287997      15.91161744 </v>
   </varray>
   <i name="volume">   2008.69472681 </i>
   <varray name="rec_basis" >
    <v>       0.08904534       0.00003648      -0.00009756 </v>
    <v>       0.00003653       0.08895887       0.00007197 </v>
    <v>      -0.00006751       0.00004871       0.06284728 </v>
   </varray>
  </crystal>
  <varray name="positions" >
   <v>       0.01727586       0.23722748       0.12891003 </v>
   <v>       0.00555042       0.23567934       0.63158471 </v>
   <v>       0.99168265       0.75732501       0.11894537 </v>
   <v>       0.00640600       0.75692809       0.63285663 </v>
   <v>       0.49082825       0.26433084       0.12275643 </v>
   <v>       0.49418890       0.24332822       0.63576842 </v>
   <v>       0.49629270       0.75355197       0.11085932 </v>
   <v>       0.50186762       0.75719798       0.62770636 </v>
   <v>       0.00465672       0.23260690       0.37595739 </v>
   <v>       0.01210782       0.24618098       0.87480369 </v>
   <v>       0.99813121       0.76158672       0.37630852 </v>
   <v>       0.00338708       0.76183576       0.87284631 </v>
   <v>       0.49807730       0.25112601       0.37894631 </v>
   <v>       0.48260914       0.24281450       0.87396398 </v>
   <v>       0.50212991       0.75823657       0.38853278 </v>
   <v>       0.49672632       0.75441615       0.87110503 </v>
   <v>       0.24550919       0.00992325       0.11831365 </v>
   <v>       0.25418629       0.99849302       0.62895963 </v>
   <v>       0.25027209       0.49415453       0.12005211 </v>
   <v>       0.25541099       0.50029378       0.63769350 </v>
   <v>       0.75112175       0.99178375       0.11990224 </v>
   <v>       0.74914750       0.99710610       0.62846550 </v>
   <v>       0.73040679       0.51900581       0.12821224 </v>
   <v>       0.74881113       0.49343587       0.63508880 </v>
   <v>       0.24686584       0.00295074       0.37813991 </v>
   <v>       0.24650884       0.00483731       0.87162262 </v>
   <v>       0.24795041       0.50182367       0.37569610 </v>
   <v>       0.25561584       0.49899522       0.87584241 </v>
   <v>       0.75651549       0.99525361       0.38541019 </v>
   <v>       0.74762123       0.98537314       0.86958232 </v>
   <v>       0.74342874       0.50188566       0.37648982 </v>
   <v>       0.74549441       0.50721101       0.87718037 </v>
   <v>       0.99918805       0.00036095       0.00006163 </v>
   <v>       0.00487032       0.99571859       0.50309267 </v>
   <v>       0.99940858       0.50046329       0.50352287 </v>
   <v>       0.49685362       0.99615490       0.99559098 </v>
   <v>       0.50082842       0.49924561       0.51226742 </v>
   <v>       0.74615278       0.24585344       0.50385881 </v>
   <v>       0.23785621       0.76159657       0.24558596 </v>
   <v>       0.25014481       0.75310742       0.75204063 </v>
   <v>       0.75258108       0.25736753       0.25703361 </v>
   <v>       0.75133934       0.24748858       0.75368820 </v>
   <v>       0.75290024       0.74678564       0.74968589 </v>
   <v>       0.99151447       0.00428490       0.24929815 </v>
   <v>       0.99561979       0.49477424       0.25716239 </v>
   <v>       0.00010189       0.49672512       0.75168004 </v>
   <v>       0.48860626       0.01599153       0.24396551 </v>
   <v>       0.50189972       0.49595326       0.75951549 </v>
   <v>       0.00899735       0.51386484       0.98886948 </v>
   <v>       0.50193881       0.00070378       0.50589777 </v>
   <v>       0.49082224       0.51124394       0.00028223 </v>
   <v>       0.25241522       0.24962520       0.00293794 </v>
   <v>       0.26220459       0.24004423       0.49722453 </v>
   <v>       0.25089864       0.75514703       0.99771284 </v>
   <v>       0.25399914       0.74777477       0.50141701 </v>
   <v>       0.74476877       0.23009238       0.98790748 </v>
   <v>       0.74491709       0.74905710       0.00023013 </v>
   <v>       0.74281093       0.75661650       0.50178176 </v>
   <v>       0.24590272       0.25903786       0.25397993 </v>
   <v>       0.24744800       0.25083327       0.75013642 </v>
   <v>       0.75788088       0.74042818       0.25238728 </v>
   <v>       0.00001451       0.00124509       0.75021453 </v>
   <v>       0.49817995       0.00091578       0.75050489 </v>
   <v>       0.50343533       0.50457508       0.24376633 </v>
   <v>       0.12812785       0.11715036       0.25432895 </v>
   <v>       0.11713704       0.13355640       0.75366867 </v>
   <v>       0.12283487       0.61285903       0.24393559 </v>
   <v>       0.11711636       0.62980262       0.76194836 </v>
   <v>       0.63359504       0.13736992       0.23232439 </v>
   <v>       0.62052803       0.13427310       0.76630494 </v>
   <v>       0.60170894       0.64339435       0.26500664 </v>
   <v>       0.61766318       0.62911564       0.75649073 </v>
   <v>       0.36887737       0.40274722       0.25999298 </v>
   <v>       0.38338055       0.36939067       0.74926222 </v>
   <v>       0.36219709       0.88986659       0.24151929 </v>
   <v>       0.38078865       0.86626659       0.73675267 </v>
   <v>       0.87159629       0.37880762       0.21283107 </v>
   <v>       0.88447943       0.36568343       0.73188525 </v>
   <v>       0.85289554       0.88755842       0.25025824 </v>
   <v>       0.88108771       0.86538604       0.74526365 </v>
   <v>       0.38240141       0.14086635       0.26318200 </v>
   <v>       0.36558274       0.12213669       0.74827682 </v>
   <v>       0.37015706       0.61497097       0.75751651 </v>
   <v>       0.87855949       0.13582119       0.23825811 </v>
   <v>       0.86491636       0.11758331       0.74313714 </v>
   <v>       0.87827306       0.62055443       0.23681660 </v>
   <v>       0.86885639       0.61178650       0.74799439 </v>
   <v>       0.11164553       0.37439507       0.24034727 </v>
   <v>       0.13258614       0.38477189       0.75120765 </v>
   <v>       0.10809169       0.86365953       0.25491827 </v>
   <v>       0.13042940       0.88017566       0.74995810 </v>
   <v>       0.63254153       0.38108837       0.26212989 </v>
   <v>       0.63557614       0.38255282       0.75027730 </v>
   <v>       0.63356230       0.87699311       0.74770295 </v>
   <v>       0.37313813       0.38365385       0.00499336 </v>
   <v>       0.37719168       0.38142873       0.48779577 </v>
   <v>       0.36529322       0.88380705       0.01204219 </v>
   <v>       0.37821951       0.87388430       0.49919413 </v>
   <v>       0.87451230       0.38091967       0.51074971 </v>
   <v>       0.86991555       0.87631436       0.00605521 </v>
   <v>       0.88561976       0.86110809       0.50480589 </v>
   <v>       0.12865509       0.12210032       0.00050077 </v>
   <v>       0.11991059       0.13055198       0.49562546 </v>
   <v>       0.12910323       0.62610540       0.99779424 </v>
   <v>       0.11818910       0.62104615       0.48223236 </v>
   <v>       0.63095596       0.10985914       0.98666311 </v>
   <v>       0.62584219       0.12791974       0.48213360 </v>
   <v>       0.62761960       0.61412041       0.99729362 </v>
   <v>       0.62905313       0.61570310       0.48830618 </v>
   <v>       0.09299151       0.37830929       0.02136595 </v>
   <v>       0.11866305       0.87217984       0.00374807 </v>
   <v>       0.13094908       0.87492711       0.48608886 </v>
   <v>       0.66807227       0.35137854       0.04268170 </v>
   <v>       0.62252548       0.37696489       0.48237992 </v>
   <v>       0.61492640       0.86426483       0.99029777 </v>
   <v>       0.62847470       0.87754577       0.50433400 </v>
   <v>       0.38524316       0.13118528       0.00654444 </v>
   <v>       0.37894883       0.12009058       0.48069935 </v>
   <v>       0.37895671       0.63542481       0.98517569 </v>
   <v>       0.38264201       0.62057499       0.49368275 </v>
   <v>       0.88080594       0.14001913       0.01902400 </v>
   <v>       0.87129992       0.12205940       0.50573206 </v>
   <v>       0.87656821       0.60441526       0.02315536 </v>
   <v>       0.00597348       0.99351454       0.12770659 </v>
   <v>       0.01258053       0.99709718       0.62314634 </v>
   <v>       0.01621205       0.51266047       0.62156990 </v>
   <v>       0.52052478       0.98792320       0.12694199 </v>
   <v>       0.50837454       0.01702054       0.62523365 </v>
   <v>       0.48592934       0.51868549       0.12179976 </v>
   <v>       0.50499011       0.49824170       0.62793167 </v>
   <v>       0.98784606       0.00249012       0.37400028 </v>
   <v>       0.98778494       0.00209066       0.87844242 </v>
   <v>       0.98051982       0.48495372       0.37525831 </v>
   <v>       0.97952136       0.48130711       0.87516649 </v>
   <v>       0.54439429       0.96597445       0.34761856 </v>
   <v>       0.48027298       0.98982376       0.87420865 </v>
   <v>       0.50984164       0.47769017       0.88069624 </v>
   <v>       0.22504734       0.27469048       0.37860551 </v>
   <v>       0.24814778       0.26069238       0.88114821 </v>
   <v>       0.28072063       0.72381980       0.35700068 </v>
   <v>       0.25469712       0.76828775       0.87341072 </v>
   <v>       0.77567323       0.25586841       0.37230107 </v>
   <v>       0.77662293       0.27280643       0.87554393 </v>
   <v>       0.77160222       0.73673935       0.37814978 </v>
   <v>       0.76556847       0.74366291       0.87532042 </v>
   <v>       0.25659527       0.25001231       0.12967423 </v>
   <v>       0.24378957       0.26348045       0.61644776 </v>
   <v>       0.26509702       0.72542932       0.13065365 </v>
   <v>       0.24159290       0.73510991       0.62370565 </v>
   <v>       0.72602518       0.24502892       0.62266903 </v>
   <v>       0.72572639       0.75938600       0.13242520 </v>
   <v>       0.75456434       0.72609101       0.62182766 </v>
  </varray>
 </structure>
</modeling>
