       N       E                     dE             d eps       ncg     rms          rms(c)
DAV:   1    -0.111911921942E+04   -0.11191E+04   -0.27382E-02 12880   0.386E-01    0.268E-02
RMM:   2    -0.111911921871E+04    0.71178E-06   -0.16971E-05  6855   0.710E-03    0.434E-02
RMM:   3    -0.111911921894E+04   -0.23328E-06   -0.48960E-06  5987   0.431E-03    0.397E-03
RMM:   4    -0.111911921892E+04    0.24535E-07   -0.12070E-06  2908   0.198E-03    0.263E-03
RMM:   5    -0.111911921889E+04    0.31214E-07   -0.82157E-07  2743   0.213E-03    0.355E-03
RMM:   6    -0.111911921882E+04    0.67972E-07   -0.19650E-07  1823   0.169E-03    0.143E-03
RMM:   7    -0.111911921879E+04    0.31519E-07   -0.14895E-07  1567   0.171E-03    0.418E-04
RMM:   8    -0.111911921878E+04    0.11394E-07   -0.27197E-08  1254   0.163E-03
   1 F= -.11191192E+04 E0= -.11191192E+04  d E =-.111912E+04  mag=    40.0000
       N       E                     dE             d eps       ncg     rms          rms(c)
DAV:   1    -0.111911927235E+04   -0.53557E-04   -0.16610E-01 12928   0.479E-01    0.189E-01
RMM:   2    -0.111911957914E+04   -0.30680E-03   -0.57520E-03 12302   0.993E-02    0.182E-01
RMM:   3    -0.111911951129E+04    0.67848E-04   -0.24101E-04  8669   0.304E-02    0.117E-01
RMM:   4    -0.111911946211E+04    0.49181E-04   -0.16860E-04  7438   0.174E-02    0.734E-02
RMM:   5    -0.111911945415E+04    0.79606E-05   -0.57926E-05  7139   0.118E-02    0.534E-02
RMM:   6    -0.111911945645E+04   -0.22976E-05   -0.20151E-05  6761   0.661E-03    0.155E-02
RMM:   7    -0.111911945852E+04   -0.20736E-05   -0.89352E-06  6244   0.457E-03    0.148E-02
RMM:   8    -0.111911946060E+04   -0.20760E-05   -0.56486E-06  5659   0.365E-03
   2 F= -.11191195E+04 E0= -.11191195E+04  d E =-.241821E-03  mag=    40.0000
       N       E                     dE             d eps       ncg     rms          rms(c)
DAV:   1    -0.111911955540E+04   -0.96875E-04   -0.21151E-02 12448   0.171E-01    0.671E-02
RMM:   2    -0.111911959204E+04   -0.36644E-04   -0.71950E-04 11170   0.350E-02    0.648E-02
RMM:   3    -0.111911958401E+04    0.80344E-05   -0.30769E-05  6475   0.108E-02    0.415E-02
RMM:   4    -0.111911957686E+04    0.71433E-05   -0.20541E-05  6334   0.606E-03    0.238E-02
RMM:   5    -0.111911957495E+04    0.19184E-05   -0.56003E-06  5536   0.389E-03    0.152E-02
RMM:   6    -0.111911957468E+04    0.26987E-06   -0.10404E-06  3348   0.225E-03    0.487E-03
RMM:   7    -0.111911957448E+04    0.19567E-06   -0.15494E-07  1960   0.190E-03    0.309E-03
RMM:   8    -0.111911957424E+04    0.23859E-06   -0.28304E-07  2041   0.189E-03
   3 F= -.11191196E+04 E0= -.11191196E+04  d E =-.355464E-03  mag=    40.0000
