       N       E                     dE             d eps       ncg     rms          rms(c)
DAV:   1    -0.108882743351E+04   -0.10888E+04   -0.11915E-01  6512   0.799E-01    0.313E-02
RMM:   2    -0.108882743670E+04   -0.31955E-05   -0.43426E-05  3558   0.140E-02    0.500E-02
RMM:   3    -0.108882743755E+04   -0.84216E-06   -0.13034E-05  3503   0.810E-03    0.125E-02
RMM:   4    -0.108882743948E+04   -0.19351E-05   -0.73012E-06  3217   0.458E-03    0.860E-03
RMM:   5    -0.108882744095E+04   -0.14701E-05   -0.48181E-06  3327   0.452E-03    0.592E-03
RMM:   6    -0.108882744187E+04   -0.91393E-06   -0.29072E-06  2504   0.273E-03    0.214E-03
RMM:   7    -0.108882744204E+04   -0.17935E-06   -0.15948E-06  2031   0.275E-03    0.189E-03
RMM:   8    -0.108882744215E+04   -0.10835E-06   -0.73310E-07  1499   0.204E-03
   1 F= -.10888274E+04 E0= -.10888274E+04  d E =-.108883E+04  mag=    50.0000
       N       E                     dE             d eps       ncg     rms          rms(c)
DAV:   1    -0.108882841851E+04   -0.97646E-03   -0.65932E-01  6208   0.974E-01    0.532E-01
RMM:   2    -0.108882923417E+04   -0.81566E-03   -0.23495E-02  6159   0.210E-01    0.429E-01
RMM:   3    -0.108882902304E+04    0.21112E-03   -0.15548E-03  6253   0.839E-02    0.211E-01
RMM:   4    -0.108882882130E+04    0.20174E-03   -0.62342E-04  5809   0.314E-02    0.156E-01
RMM:   5    -0.108882875649E+04    0.64815E-04   -0.13667E-04  3736   0.224E-02    0.799E-02
RMM:   6    -0.108882874479E+04    0.11696E-04   -0.96527E-05  3637   0.140E-02    0.482E-02
RMM:   7    -0.108882874398E+04    0.81220E-06   -0.28180E-05  3579   0.116E-02    0.305E-02
RMM:   8    -0.108882874211E+04    0.18670E-05   -0.19439E-05  3553   0.563E-03
   2 F= -.10888287E+04 E0= -.10888287E+04  d E =-.129996E-02  mag=    50.0000
       N       E                     dE             d eps       ncg     rms          rms(c)
DAV:   1    -0.108882886876E+04   -0.12479E-03   -0.40496E-02  6736   0.241E-01    0.132E-01
RMM:   2    -0.108882890621E+04   -0.37449E-04   -0.14097E-03  6111   0.511E-02    0.105E-01
RMM:   3    -0.108882888653E+04    0.19683E-04   -0.71113E-05  3570   0.202E-02    0.528E-02
RMM:   4    -0.108882887281E+04    0.13723E-04   -0.49367E-05  3402   0.103E-02    0.419E-02
RMM:   5    -0.108882887241E+04    0.40104E-06   -0.16467E-05  3349   0.742E-03    0.251E-02
RMM:   6    -0.108882887446E+04   -0.20521E-05   -0.98087E-06  3216   0.452E-03    0.100E-02
RMM:   7    -0.108882887646E+04   -0.20027E-05   -0.38050E-06  2428   0.355E-03    0.664E-03
RMM:   8    -0.108882887802E+04   -0.15625E-05   -0.28273E-06  1541   0.255E-03
   3 F= -.10888289E+04 E0= -.10888289E+04  d E =-.143587E-02  mag=    50.0000
       N       E                     dE             d eps       ncg     rms          rms(c)
DAV:   1    -0.108882869224E+04    0.18423E-03   -0.57886E-01  6192   0.900E-01    0.269E-01
RMM:   2    -0.108883014639E+04   -0.14542E-02   -0.15043E-02  6174   0.168E-01    0.185E-01
RMM:   3    -0.108883019565E+04   -0.49262E-04   -0.90761E-04  5844   0.650E-02    0.111E-01
RMM:   4    -0.108883013593E+04    0.59728E-04   -0.20173E-04  3839   0.201E-02    0.691E-02
RMM:   5    -0.108883012266E+04    0.13271E-04   -0.71180E-05  3595   0.140E-02    0.518E-02
RMM:   6    -0.108883012498E+04   -0.23251E-05   -0.29135E-05  3533   0.103E-02    0.118E-02
RMM:   7    -0.108883012638E+04   -0.13960E-05   -0.13525E-05  3497   0.631E-03    0.839E-03
RMM:   8    -0.108883012706E+04   -0.68291E-06   -0.78630E-06  3369   0.509E-03
   4 F= -.10888301E+04 E0= -.10888301E+04  d E =-.124904E-02  mag=    50.0000
       N       E                     dE             d eps       ncg     rms          rms(c)
DAV:   1    -0.108882995532E+04    0.17106E-03   -0.13025E-01  6208   0.427E-01    0.128E-01
RMM:   2    -0.108883028965E+04   -0.33433E-03   -0.34479E-03  6162   0.792E-02    0.879E-02
RMM:   3    -0.108883029587E+04   -0.62243E-05   -0.17054E-04  3825   0.307E-02    0.528E-02
RMM:   4    -0.108883028593E+04    0.99435E-05   -0.62083E-05  3546   0.122E-02    0.414E-02
RMM:   5    -0.108883028389E+04    0.20329E-05   -0.25330E-05  3502   0.941E-03    0.276E-02
RMM:   6    -0.108883028461E+04   -0.71831E-06   -0.16261E-05  3448   0.570E-03    0.786E-03
RMM:   7    -0.108883028520E+04   -0.58452E-06   -0.65376E-06  3302   0.509E-03    0.603E-03
RMM:   8    -0.108883028556E+04   -0.35974E-06   -0.39736E-06  2369   0.283E-03
   5 F= -.10888303E+04 E0= -.10888303E+04  d E =-.140753E-02  mag=    50.0000
       N       E                     dE             d eps       ncg     rms          rms(c)
DAV:   1    -0.108883005382E+04    0.23138E-03   -0.56499E-01  6352   0.881E-01    0.250E-01
RMM:   2    -0.108883125340E+04   -0.11996E-02   -0.15113E-02  6201   0.165E-01    0.180E-01
RMM:   3    -0.108883124248E+04    0.10918E-04   -0.94849E-04  5886   0.646E-02    0.109E-01
RMM:   4    -0.108883118581E+04    0.56668E-04   -0.23800E-04  3913   0.209E-02    0.856E-02
RMM:   5    -0.108883117330E+04    0.12507E-04   -0.67320E-05  3600   0.143E-02    0.512E-02
RMM:   6    -0.108883117608E+04   -0.27740E-05   -0.40016E-05  3560   0.103E-02    0.172E-02
RMM:   7    -0.108883117980E+04   -0.37253E-05   -0.17605E-05  3531   0.788E-03    0.122E-02
RMM:   8    -0.108883118258E+04   -0.27807E-05   -0.11962E-05  3480   0.525E-03
   6 F= -.10888312E+04 E0= -.10888312E+04  d E =-.897026E-03  mag=    50.0000
