<?xml version="1.0" encoding="ISO-8859-1"?>
<modeling>
 <generator>
  <i name="program" type="string">vasp </i>
  <i name="version" type="string">5.4.1  </i>
  <i name="subversion" type="string">05Feb16 (build Jan 25 2017 20:16:33) complex                          parallel </i>
  <i name="platform" type="string">BWXE6 </i>
  <i name="date" type="string">2019 08 12 </i>
  <i name="time" type="string">10:31:50 </i>
 </generator>
 <incar>
  <i type="string" name="SYSTEM"> STF</i>
  <i type="string" name="PREC">normal</i>
  <i type="string" name="ALGO"> Fast</i>
  <i type="int" name="ISPIN">     2</i>
  <i type="int" name="NELM">    40</i>
  <i type="int" name="NELMIN">     8</i>
  <i type="int" name="IBRION">     2</i>
  <i name="EDIFF">      0.00010000</i>
  <i name="EDIFFG">     -0.03000000</i>
  <i type="int" name="NSW">    30</i>
  <i type="int" name="ISIF">     3</i>
  <i name="ENCUT">    520.00000000</i>
  <i type="int" name="NBANDS">   768</i>
  <v name="MAGMOM">      0.60000000      0.60000000      0.60000000      0.60000000      0.60000000      0.60000000      0.60000000      0.60000000      0.60000000      0.60000000      0.60000000      0.60000000      0.60000000      0.60000000      0.60000000      0.60000000      0.60000000      0.60000000      0.60000000      0.60000000
      0.60000000      0.60000000      0.60000000      0.60000000      0.60000000      0.60000000      0.60000000      0.60000000      0.60000000      0.60000000      0.60000000      0.60000000      0.60000000      0.60000000      0.60000000      0.60000000      0.60000000      0.60000000      0.60000000      0.60000000
      0.60000000      0.60000000      0.60000000      0.60000000      0.60000000      0.60000000      0.60000000      0.60000000      0.60000000      0.60000000      0.60000000      0.60000000      5.00000000      5.00000000      5.00000000      5.00000000      5.00000000      5.00000000      5.00000000      5.00000000
      5.00000000      5.00000000      5.00000000      5.00000000      0.60000000      0.60000000      0.60000000      0.60000000      0.60000000      0.60000000      0.60000000      0.60000000      0.60000000      0.60000000      0.60000000      0.60000000      0.60000000      0.60000000      0.60000000      0.60000000
      0.60000000      0.60000000      0.60000000      0.60000000      0.60000000      0.60000000      0.60000000      0.60000000      0.60000000      0.60000000      0.60000000      0.60000000      0.60000000      0.60000000      0.60000000      0.60000000      0.60000000      0.60000000      0.60000000      0.60000000
      0.60000000      0.60000000      0.60000000      0.60000000      0.60000000      0.60000000      0.60000000      0.60000000      0.60000000      0.60000000      0.60000000      0.60000000      0.60000000      0.60000000      0.60000000      0.60000000      0.60000000      0.60000000      0.60000000      0.60000000
      0.60000000      0.60000000      0.60000000      0.60000000      0.60000000      0.60000000      0.60000000      0.60000000      0.60000000      0.60000000      0.60000000      0.60000000      0.60000000      0.60000000      0.60000000      0.60000000      0.60000000      0.60000000      0.60000000      0.60000000
      0.60000000      0.60000000      0.60000000      0.60000000      0.60000000      0.60000000      0.60000000      0.60000000      0.60000000      0.60000000      0.60000000      0.60000000      0.60000000      0.60000000</v>
  <i type="string" name="LREAL"> Auto</i>
  <i type="int" name="ISMEAR">     0</i>
  <i name="SIGMA">      0.05000000</i>
  <i type="int" name="LMAXMIX">     4</i>
  <v type="int" name="KPOINT_BSE">    -1     0     0     0</v>
  <i type="int" name="NELM">    40</i>
  <i type="logical" name="LDAU"> T  </i>
  <v type="int" name="LDAUTYPE">     2</v>
  <v type="int" name="LDAUL">     0     2     2     0</v>
  <v name="LDAUU">      0.00000000      3.00000000      5.00000000      0.00000000</v>
  <v name="LDAUJ">      0.00000000      0.00000000      0.00000000      0.00000000</v>
  <i type="int" name="LDAUPRINT">     1</i>
 </incar>
 <kpoints>
  <generation param="Monkhorst-Pack">
   <v type="int" name="divisions">       2        2        2 </v>
   <v name="usershift">      0.00000000       0.00000000       0.00000000 </v>
   <v name="genvec1">      0.50000000       0.00000000       0.00000000 </v>
   <v name="genvec2">      0.00000000       0.50000000       0.00000000 </v>
   <v name="genvec3">      0.00000000       0.00000000       0.50000000 </v>
   <v name="shift">      0.50000000       0.50000000       0.50000000 </v>
  </generation>
  <varray name="kpointlist" >
   <v>       0.25000000       0.25000000       0.25000000 </v>
   <v>      -0.25000000       0.25000000       0.25000000 </v>
  </varray>
  <varray name="weights" >
   <v>       0.50000000 </v>
   <v>       0.50000000 </v>
  </varray>
 </kpoints>
 <parameters>
  <separator name="general" >
   <i type="string" name="SYSTEM">STF</i>
   <i type="logical" name="LCOMPAT"> F  </i>
  </separator>
  <separator name="electronic" >
   <i type="string" name="PREC">normal</i>
   <i name="ENMAX">    520.00000000</i>
   <i name="ENAUG">    605.39200000</i>
   <i name="EDIFF">      0.00010000</i>
   <i type="int" name="IALGO">    68</i>
   <i type="int" name="IWAVPR">    11</i>
   <i type="int" name="NBANDS">   768</i>
   <i name="NELECT">   1036.00000000</i>
   <i type="int" name="TURBO">     0</i>
   <i type="int" name="IRESTART">     0</i>
   <i type="int" name="NREBOOT">     0</i>
   <i type="int" name="NMIN">     0</i>
   <i name="EREF">      0.00000000</i>
   <separator name="electronic smearing" >
    <i type="int" name="ISMEAR">     0</i>
    <i name="SIGMA">      0.05000000</i>
    <i name="KSPACING">      0.50000000</i>
    <i type="logical" name="KGAMMA"> T  </i>
   </separator>
   <separator name="electronic projectors" >
    <i type="logical" name="LREAL"> T  </i>
    <v name="ROPT">     -0.00050000     -0.00050000     -0.00050000     -0.00050000</v>
    <i type="int" name="LMAXPAW">  -100</i>
    <i type="int" name="LMAXMIX">     4</i>
    <i type="logical" name="NLSPLINE"> F  </i>
   </separator>
   <separator name="electronic startup" >
    <i type="int" name="ISTART">     1</i>
    <i type="int" name="ICHARG">     0</i>
    <i type="int" name="INIWAV">     1</i>
   </separator>
   <separator name="electronic spin" >
    <i type="int" name="ISPIN">     2</i>
    <i type="logical" name="LNONCOLLINEAR"> F  </i>
    <v name="MAGMOM">      0.60000000      0.60000000      0.60000000      0.60000000      0.60000000      0.60000000      0.60000000      0.60000000      0.60000000      0.60000000      0.60000000      0.60000000      0.60000000      0.60000000      0.60000000      0.60000000      0.60000000      0.60000000      0.60000000      0.60000000
      0.60000000      0.60000000      0.60000000      0.60000000      0.60000000      0.60000000      0.60000000      0.60000000      0.60000000      0.60000000      0.60000000      0.60000000      0.60000000      0.60000000      0.60000000      0.60000000      0.60000000      0.60000000      0.60000000      0.60000000
      0.60000000      0.60000000      0.60000000      0.60000000      0.60000000      0.60000000      0.60000000      0.60000000      0.60000000      0.60000000      0.60000000      0.60000000      5.00000000      5.00000000      5.00000000      5.00000000      5.00000000      5.00000000      5.00000000      5.00000000
      5.00000000      5.00000000      5.00000000      5.00000000      0.60000000      0.60000000      0.60000000      0.60000000      0.60000000      0.60000000      0.60000000      0.60000000      0.60000000      0.60000000      0.60000000      0.60000000      0.60000000      0.60000000      0.60000000      0.60000000
      0.60000000      0.60000000      0.60000000      0.60000000      0.60000000      0.60000000      0.60000000      0.60000000      0.60000000      0.60000000      0.60000000      0.60000000      0.60000000      0.60000000      0.60000000      0.60000000      0.60000000      0.60000000      0.60000000      0.60000000
      0.60000000      0.60000000      0.60000000      0.60000000      0.60000000      0.60000000      0.60000000      0.60000000      0.60000000      0.60000000      0.60000000      0.60000000      0.60000000      0.60000000      0.60000000      0.60000000      0.60000000      0.60000000      0.60000000      0.60000000
      0.60000000      0.60000000      0.60000000      0.60000000      0.60000000      0.60000000      0.60000000      0.60000000      0.60000000      0.60000000      0.60000000      0.60000000      0.60000000      0.60000000      0.60000000      0.60000000      0.60000000      0.60000000      0.60000000      0.60000000
      0.60000000      0.60000000      0.60000000      0.60000000      0.60000000      0.60000000      0.60000000      0.60000000      0.60000000      0.60000000      0.60000000      0.60000000      0.60000000      0.60000000</v>
    <i name="NUPDOWN">     -1.00000000</i>
    <i type="logical" name="LSORBIT"> F  </i>
    <v name="SAXIS">      0.00000000      0.00000000      1.00000000</v>
    <i type="logical" name="LSPIRAL"> F  </i>
    <v name="QSPIRAL">      0.00000000      0.00000000      0.00000000</v>
    <i type="logical" name="LZEROZ"> F  </i>
   </separator>
   <separator name="electronic exchange-correlation" >
    <i type="logical" name="LASPH"> F  </i>
    <i type="logical" name="LMETAGGA"> F  </i>
   </separator>
   <separator name="electronic convergence" >
    <i type="int" name="NELM">    40</i>
    <i type="int" name="NELMDL">     0</i>
    <i type="int" name="NELMIN">     8</i>
    <i name="ENINI">    520.00000000</i>
    <separator name="electronic convergence detail" >
     <i type="logical" name="LDIAG"> T  </i>
     <i type="logical" name="LSUBROT"> F  </i>
     <i name="WEIMIN">      0.00100000</i>
     <i name="EBREAK">      0.00000003</i>
     <i name="DEPER">      0.30000000</i>
     <i type="int" name="NRMM">     4</i>
     <i name="TIME">      0.40000000</i>
    </separator>
   </separator>
   <separator name="electronic mixer" >
    <i name="AMIX">      0.40000000</i>
    <i name="BMIX">      1.00000000</i>
    <i name="AMIN">      0.10000000</i>
    <i name="AMIX_MAG">      1.60000000</i>
    <i name="BMIX_MAG">      1.00000000</i>
    <separator name="electronic mixer details" >
     <i type="int" name="IMIX">     4</i>
     <i type="logical" name="MIXFIRST"> F  </i>
     <i type="int" name="MAXMIX">   -45</i>
     <i name="WC">    100.00000000</i>
     <i type="int" name="INIMIX">     1</i>
     <i type="int" name="MIXPRE">     1</i>
     <i type="int" name="MREMOVE">     5</i>
    </separator>
   </separator>
   <separator name="electronic dipolcorrection" >
    <i type="logical" name="LDIPOL"> F  </i>
    <i type="logical" name="LMONO"> F  </i>
    <i type="int" name="IDIPOL">     0</i>
    <i name="EPSILON">      1.00000000</i>
    <v name="DIPOL">   -100.00000000   -100.00000000   -100.00000000</v>
    <i name="EFIELD">      0.00000000</i>
   </separator>
  </separator>
  <separator name="grids" >
   <i type="int" name="NGX">    64</i>
   <i type="int" name="NGY">    64</i>
   <i type="int" name="NGZ">    90</i>
   <i type="int" name="NGXF">   128</i>
   <i type="int" name="NGYF">   128</i>
   <i type="int" name="NGZF">   180</i>
   <i type="logical" name="ADDGRID"> F  </i>
  </separator>
  <separator name="ionic" >
   <i type="int" name="NSW">    30</i>
   <i type="int" name="IBRION">     2</i>
   <i type="int" name="ISIF">     3</i>
   <i name="PSTRESS">      0.00000000</i>
   <i name="EDIFFG">     -0.03000000</i>
   <i type="int" name="NFREE">     1</i>
   <i name="POTIM">      0.50000000</i>
   <i name="SMASS">     -3.00000000</i>
   <i name="SCALEE">      1.00000000</i>
  </separator>
  <separator name="ionic md" >
   <i name="TEBEG">      0.00010000</i>
   <i name="TEEND">      0.00010000</i>
   <i type="int" name="NBLOCK">     1</i>
   <i type="int" name="KBLOCK">    30</i>
   <i type="int" name="NPACO">   256</i>
   <i name="APACO">     16.00000000</i>
  </separator>
  <separator name="symmetry" >
   <i type="int" name="ISYM">     2</i>
   <i name="SYMPREC">      0.00001000</i>
  </separator>
  <separator name="dos" >
   <i type="logical" name="LORBIT"> F  </i>
   <v name="RWIGS">     -1.00000000     -1.00000000     -1.00000000     -1.00000000</v>
   <i type="int" name="NEDOS">   301</i>
   <i name="EMIN">     10.00000000</i>
   <i name="EMAX">    -10.00000000</i>
   <i name="EFERMI">      0.00000000</i>
  </separator>
  <separator name="writing" >
   <i type="int" name="NWRITE">     2</i>
   <i type="logical" name="LWAVE"> T  </i>
   <i type="logical" name="LCHARG"> T  </i>
   <i type="logical" name="LPARD"> F  </i>
   <i type="logical" name="LVTOT"> F  </i>
   <i type="logical" name="LVHAR"> F  </i>
   <i type="logical" name="LELF"> F  </i>
   <i type="logical" name="LOPTICS"> F  </i>
   <v name="STM">      0.00000000      0.00000000      0.00000000      0.00000000      0.00000000      0.00000000      0.00000000</v>
  </separator>
  <separator name="performance" >
   <i type="int" name="NPAR">     2</i>
   <i type="int" name="NSIM">     4</i>
   <i type="int" name="NBLK">    -1</i>
   <i type="logical" name="LPLANE"> T  </i>
   <i type="logical" name="LSCALAPACK"> T  </i>
   <i type="logical" name="LSCAAWARE"> F  </i>
   <i type="logical" name="LSCALU"> F  </i>
   <i type="logical" name="LASYNC"> F  </i>
   <i type="logical" name="LORBITALREAL"> F  </i>
  </separator>
  <separator name="miscellaneous" >
   <i type="int" name="IDIOT">     3</i>
   <i type="logical" name="LMUSIC"> F  </i>
   <v name="POMASS">     87.62000000     47.88000000     55.84700000     16.00000000</v>
   <v name="DARWINR">      0.00000000      0.00000000      0.00000000      0.00000000</v>
   <v name="DARWINV">      1.00000000      1.00000000      1.00000000      1.00000000</v>
   <i type="logical" name="LCORR"> T  </i>
  </separator>
  <i type="logical" name="GGA_COMPAT"> T  </i>
  <i type="logical" name="LBERRY"> F  </i>
  <i type="int" name="ICORELEVEL">     0</i>
  <i type="logical" name="LDAU"> T  </i>
  <v type="int" name="LDAUTYPE">     2</v>
  <v type="int" name="LDAUL">     0</v>
  <v name="LDAUU">      0.00000000</v>
  <v name="LDAUJ">      0.00000000</v>
  <i type="int" name="LDAUPRINT">     1</i>
  <i type="int" name="I_CONSTRAINED_M">     0</i>
  <separator name="electronic exchange-correlation" >
   <i type="string" name="GGA">--</i>
   <i type="int" name="VOSKOWN">     0</i>
   <i type="logical" name="LHFCALC"> F  </i>
   <i type="string" name="PRECFOCK"></i>
   <i type="logical" name="LSYMGRAD"> F  </i>
   <i type="logical" name="LHFONE"> F  </i>
   <i type="logical" name="LRHFCALC"> F  </i>
   <i type="logical" name="LTHOMAS"> F  </i>
   <i type="logical" name="LMODELHF"> F  </i>
   <i name="ENCUT4O">     -1.00000000</i>
   <i type="int" name="EXXOEP">     0</i>
   <i type="int" name="FOURORBIT">     0</i>
   <i name="AEXX">      0.00000000</i>
   <i name="HFALPHA">      0.00000000</i>
   <i name="MCALPHA">      0.00000000</i>
   <i name="ALDAX">      1.00000000</i>
   <i name="AGGAX">      1.00000000</i>
   <i name="ALDAC">      1.00000000</i>
   <i name="AGGAC">      1.00000000</i>
   <i type="int" name="NKREDX">     1</i>
   <i type="int" name="NKREDY">     1</i>
   <i type="int" name="NKREDZ">     1</i>
   <i type="logical" name="SHIFTRED"> F  </i>
   <i type="logical" name="ODDONLY"> F  </i>
   <i type="logical" name="EVENONLY"> F  </i>
   <i type="int" name="LMAXFOCK">     0</i>
   <i type="int" name="NMAXFOCKAE">     0</i>
   <i type="logical" name="LFOCKAEDFT"> F  </i>
   <i name="HFSCREEN">      0.00000000</i>
   <i name="HFSCREENC">      0.00000000</i>
   <i type="int" name="NBANDSGWLOW">     0</i>
  </separator>
  <separator name="vdW DFT" >
   <i type="logical" name="LUSE_VDW"> F  </i>
   <i name="Zab_VDW">     -0.84910000</i>
   <i name="PARAM1">      0.12340000</i>
   <i name="PARAM2">      1.00000000</i>
   <i name="PARAM3">      0.00000000</i>
  </separator>
  <separator name="model GW" >
   <i type="int" name="MODEL_GW">     0</i>
   <i name="MODEL_EPS0">      7.79926789</i>
   <i name="MODEL_ALPHA">      1.00000000</i>
  </separator>
  <separator name="linear response parameters" >
   <i type="logical" name="LEPSILON"> F  </i>
   <i type="logical" name="LRPA"> F  </i>
   <i type="logical" name="LNABLA"> F  </i>
   <i type="logical" name="LVEL"> F  </i>
   <i type="int" name="KINTER">     0</i>
   <i name="CSHIFT">      0.10000000</i>
   <i name="OMEGAMAX">     -1.00000000</i>
   <i name="DEG_THRESHOLD">      0.00200000</i>
  </separator>
  <separator name="orbital magnetization" >
   <i type="logical" name="NUCIND"> F  </i>
   <v name="MAGPOS">      0.00000000      0.00000000      0.00000000</v>
   <i type="logical" name="LNICSALL"> T  </i>
   <i type="logical" name="ORBITALMAG"> F  </i>
   <i type="logical" name="LMAGBLOCH"> F  </i>
   <i type="logical" name="LCHIMAG"> F  </i>
   <i type="logical" name="LGAUGE"> T  </i>
   <i type="int" name="MAGATOM">     0</i>
   <v name="MAGDIPOL">      0.00000000      0.00000000      0.00000000</v>
   <v name="AVECCONST">      0.00000000      0.00000000      0.00000000</v>
  </separator>
  <separator name="response functions" >
   <i type="logical" name="LADDER"> F  </i>
   <i type="logical" name="LFXC"> F  </i>
   <i type="logical" name="LHARTREE"> T  </i>
   <i type="int" name="IBSE">     0</i>
   <v type="int" name="KPOINT">    -1     0     0     0</v>
   <i type="logical" name="LTCTE"> F  </i>
   <i type="logical" name="LTETE"> F  </i>
   <i type="logical" name="LTRIPLET"> F  </i>
   <i type="logical" name="LFXCEPS"> F  </i>
   <i type="logical" name="LFXHEG"> F  </i>
   <i type="int" name="NATURALO">     0</i>
   <i type="logical" name="L2ORDER"> F  </i>
   <i type="logical" name="LUSEW"> F  </i>
   <i name="ENCUTGW">     -2.00000000</i>
   <i name="ENCUTGWSOFT">     -2.00000000</i>
   <i name="ENCUTLF">     -1.00000000</i>
   <i type="int" name="LMAXMP2">    -1</i>
   <i name="SCISSOR">      0.00000000</i>
   <i type="int" name="NOMEGA">     0</i>
   <i type="int" name="NOMEGAR">     0</i>
   <i type="int" name="NBANDSGW">    -1</i>
   <i type="int" name="NBANDSO">    -1</i>
   <i type="int" name="NBANDSV">    -1</i>
   <i type="int" name="NELM">    40</i>
   <i type="int" name="NELMHF">     1</i>
   <i type="int" name="DIM">     3</i>
   <i type="int" name="ANTIRES">     0</i>
   <i name="OMEGAMAX">    -30.00000000</i>
   <i name="OMEGAMIN">    -30.00000000</i>
   <i name="OMEGATL">   -200.00000000</i>
   <i type="int" name="OMEGAGRID">     0</i>
   <i name="CSHIFT">     -0.10000000</i>
   <i type="logical" name="SELFENERGY"> F  </i>
   <i type="logical" name="LSPECTRAL"> F  </i>
   <i type="logical" name="LSPECTRALGW"> F  </i>
   <i type="logical" name="LSINGLES"> F  </i>
   <i type="logical" name="LFERMIGW"> F  </i>
   <i type="logical" name="ODDONLYGW"> F  </i>
   <i type="logical" name="EVENONLYGW"> F  </i>
   <i type="int" name="NKREDLFX">     1</i>
   <i type="int" name="NKREDLFY">     1</i>
   <i type="int" name="NKREDLFZ">     1</i>
   <i type="int" name="MAXMEM">  1800</i>
   <i type="int" name="TELESCOPE">     0</i>
   <i type="int" name="TAUPAR">     1</i>
   <i type="int" name="OMEGAPAR">    -1</i>
   <i name="LAMBDA">      1.00000000</i>
  </separator>
  <separator name="External order field" >
   <i name="OFIELD_KAPPA">      0.00000000</i>
   <v name="OFIELD_K">      0.00000000      0.00000000      0.00000000</v>
   <i name="OFIELD_Q6_NEAR">      0.00000000</i>
   <i name="OFIELD_Q6_FAR">      0.00000000</i>
   <i name="OFIELD_A">      0.00000000</i>
  </separator>
 </parameters>
 <atominfo>
  <atoms>     154 </atoms>
  <types>       4 </types>
  <array name="atoms" >
   <dimension dim="1">ion</dimension>
   <field type="string">element</field>
   <field type="int">atomtype</field>
   <set>
    <rc><c>Sr</c><c>   1</c></rc>
    <rc><c>Sr</c><c>   1</c></rc>
    <rc><c>Sr</c><c>   1</c></rc>
    <rc><c>Sr</c><c>   1</c></rc>
    <rc><c>Sr</c><c>   1</c></rc>
    <rc><c>Sr</c><c>   1</c></rc>
    <rc><c>Sr</c><c>   1</c></rc>
    <rc><c>Sr</c><c>   1</c></rc>
    <rc><c>Sr</c><c>   1</c></rc>
    <rc><c>Sr</c><c>   1</c></rc>
    <rc><c>Sr</c><c>   1</c></rc>
    <rc><c>Sr</c><c>   1</c></rc>
    <rc><c>Sr</c><c>   1</c></rc>
    <rc><c>Sr</c><c>   1</c></rc>
    <rc><c>Sr</c><c>   1</c></rc>
    <rc><c>Sr</c><c>   1</c></rc>
    <rc><c>Sr</c><c>   1</c></rc>
    <rc><c>Sr</c><c>   1</c></rc>
    <rc><c>Sr</c><c>   1</c></rc>
    <rc><c>Sr</c><c>   1</c></rc>
    <rc><c>Sr</c><c>   1</c></rc>
    <rc><c>Sr</c><c>   1</c></rc>
    <rc><c>Sr</c><c>   1</c></rc>
    <rc><c>Sr</c><c>   1</c></rc>
    <rc><c>Sr</c><c>   1</c></rc>
    <rc><c>Sr</c><c>   1</c></rc>
    <rc><c>Sr</c><c>   1</c></rc>
    <rc><c>Sr</c><c>   1</c></rc>
    <rc><c>Sr</c><c>   1</c></rc>
    <rc><c>Sr</c><c>   1</c></rc>
    <rc><c>Sr</c><c>   1</c></rc>
    <rc><c>Sr</c><c>   1</c></rc>
    <rc><c>Ti</c><c>   2</c></rc>
    <rc><c>Ti</c><c>   2</c></rc>
    <rc><c>Ti</c><c>   2</c></rc>
    <rc><c>Ti</c><c>   2</c></rc>
    <rc><c>Ti</c><c>   2</c></rc>
    <rc><c>Ti</c><c>   2</c></rc>
    <rc><c>Ti</c><c>   2</c></rc>
    <rc><c>Ti</c><c>   2</c></rc>
    <rc><c>Ti</c><c>   2</c></rc>
    <rc><c>Ti</c><c>   2</c></rc>
    <rc><c>Ti</c><c>   2</c></rc>
    <rc><c>Ti</c><c>   2</c></rc>
    <rc><c>Ti</c><c>   2</c></rc>
    <rc><c>Ti</c><c>   2</c></rc>
    <rc><c>Ti</c><c>   2</c></rc>
    <rc><c>Ti</c><c>   2</c></rc>
    <rc><c>Ti</c><c>   2</c></rc>
    <rc><c>Ti</c><c>   2</c></rc>
    <rc><c>Ti</c><c>   2</c></rc>
    <rc><c>Ti</c><c>   2</c></rc>
    <rc><c>Fe</c><c>   3</c></rc>
    <rc><c>Fe</c><c>   3</c></rc>
    <rc><c>Fe</c><c>   3</c></rc>
    <rc><c>Fe</c><c>   3</c></rc>
    <rc><c>Fe</c><c>   3</c></rc>
    <rc><c>Fe</c><c>   3</c></rc>
    <rc><c>Fe</c><c>   3</c></rc>
    <rc><c>Fe</c><c>   3</c></rc>
    <rc><c>Fe</c><c>   3</c></rc>
    <rc><c>Fe</c><c>   3</c></rc>
    <rc><c>Fe</c><c>   3</c></rc>
    <rc><c>Fe</c><c>   3</c></rc>
    <rc><c>O </c><c>   4</c></rc>
    <rc><c>O </c><c>   4</c></rc>
    <rc><c>O </c><c>   4</c></rc>
    <rc><c>O </c><c>   4</c></rc>
    <rc><c>O </c><c>   4</c></rc>
    <rc><c>O </c><c>   4</c></rc>
    <rc><c>O </c><c>   4</c></rc>
    <rc><c>O </c><c>   4</c></rc>
    <rc><c>O </c><c>   4</c></rc>
    <rc><c>O </c><c>   4</c></rc>
    <rc><c>O </c><c>   4</c></rc>
    <rc><c>O </c><c>   4</c></rc>
    <rc><c>O </c><c>   4</c></rc>
    <rc><c>O </c><c>   4</c></rc>
    <rc><c>O </c><c>   4</c></rc>
    <rc><c>O </c><c>   4</c></rc>
    <rc><c>O </c><c>   4</c></rc>
    <rc><c>O </c><c>   4</c></rc>
    <rc><c>O </c><c>   4</c></rc>
    <rc><c>O </c><c>   4</c></rc>
    <rc><c>O </c><c>   4</c></rc>
    <rc><c>O </c><c>   4</c></rc>
    <rc><c>O </c><c>   4</c></rc>
    <rc><c>O </c><c>   4</c></rc>
    <rc><c>O </c><c>   4</c></rc>
    <rc><c>O </c><c>   4</c></rc>
    <rc><c>O </c><c>   4</c></rc>
    <rc><c>O </c><c>   4</c></rc>
    <rc><c>O </c><c>   4</c></rc>
    <rc><c>O </c><c>   4</c></rc>
    <rc><c>O </c><c>   4</c></rc>
    <rc><c>O </c><c>   4</c></rc>
    <rc><c>O </c><c>   4</c></rc>
    <rc><c>O </c><c>   4</c></rc>
    <rc><c>O </c><c>   4</c></rc>
    <rc><c>O </c><c>   4</c></rc>
    <rc><c>O </c><c>   4</c></rc>
    <rc><c>O </c><c>   4</c></rc>
    <rc><c>O </c><c>   4</c></rc>
    <rc><c>O </c><c>   4</c></rc>
    <rc><c>O </c><c>   4</c></rc>
    <rc><c>O </c><c>   4</c></rc>
    <rc><c>O </c><c>   4</c></rc>
    <rc><c>O </c><c>   4</c></rc>
    <rc><c>O </c><c>   4</c></rc>
    <rc><c>O </c><c>   4</c></rc>
    <rc><c>O </c><c>   4</c></rc>
    <rc><c>O </c><c>   4</c></rc>
    <rc><c>O </c><c>   4</c></rc>
    <rc><c>O </c><c>   4</c></rc>
    <rc><c>O </c><c>   4</c></rc>
    <rc><c>O </c><c>   4</c></rc>
    <rc><c>O </c><c>   4</c></rc>
    <rc><c>O </c><c>   4</c></rc>
    <rc><c>O </c><c>   4</c></rc>
    <rc><c>O </c><c>   4</c></rc>
    <rc><c>O </c><c>   4</c></rc>
    <rc><c>O </c><c>   4</c></rc>
    <rc><c>O </c><c>   4</c></rc>
    <rc><c>O </c><c>   4</c></rc>
    <rc><c>O </c><c>   4</c></rc>
    <rc><c>O </c><c>   4</c></rc>
    <rc><c>O </c><c>   4</c></rc>
    <rc><c>O </c><c>   4</c></rc>
    <rc><c>O </c><c>   4</c></rc>
    <rc><c>O </c><c>   4</c></rc>
    <rc><c>O </c><c>   4</c></rc>
    <rc><c>O </c><c>   4</c></rc>
    <rc><c>O </c><c>   4</c></rc>
    <rc><c>O </c><c>   4</c></rc>
    <rc><c>O </c><c>   4</c></rc>
    <rc><c>O </c><c>   4</c></rc>
    <rc><c>O </c><c>   4</c></rc>
    <rc><c>O </c><c>   4</c></rc>
    <rc><c>O </c><c>   4</c></rc>
    <rc><c>O </c><c>   4</c></rc>
    <rc><c>O </c><c>   4</c></rc>
    <rc><c>O </c><c>   4</c></rc>
    <rc><c>O </c><c>   4</c></rc>
    <rc><c>O </c><c>   4</c></rc>
    <rc><c>O </c><c>   4</c></rc>
    <rc><c>O </c><c>   4</c></rc>
    <rc><c>O </c><c>   4</c></rc>
    <rc><c>O </c><c>   4</c></rc>
    <rc><c>O </c><c>   4</c></rc>
    <rc><c>O </c><c>   4</c></rc>
    <rc><c>O </c><c>   4</c></rc>
    <rc><c>O </c><c>   4</c></rc>
    <rc><c>O </c><c>   4</c></rc>
    <rc><c>O </c><c>   4</c></rc>
   </set>
  </array>
  <array name="atomtypes" >
   <dimension dim="1">type</dimension>
   <field type="int">atomspertype</field>
   <field type="string">element</field>
   <field>mass</field>
   <field>valence</field>
   <field type="string">pseudopotential</field>
   <set>
    <rc><c>  32</c><c>Sr</c><c>     87.62000000</c><c>     10.00000000</c><c>  PAW_PBE Sr_sv 07Sep2000               </c></rc>
    <rc><c>  20</c><c>Ti</c><c>     47.88000000</c><c>      4.00000000</c><c>  PAW_PBE Ti 08Apr2002                  </c></rc>
    <rc><c>  12</c><c>Fe</c><c>     55.84700000</c><c>      8.00000000</c><c>  PAW_PBE Fe 06Sep2000                  </c></rc>
    <rc><c>  90</c><c>O </c><c>     16.00000000</c><c>      6.00000000</c><c>  PAW_PBE O 08Apr2002                   </c></rc>
   </set>
  </array>
 </atominfo>
 <structure name="initialpos" >
  <crystal>
   <varray name="basis" >
    <v>      11.25356664      -0.00265508       0.00000000 </v>
    <v>      -0.00261413      11.25550273       0.00000000 </v>
    <v>       0.00000000       0.00000000      15.80404462 </v>
   </varray>
   <i name="volume">   2001.81209094 </i>
   <varray name="rec_basis" >
    <v>       0.08886072       0.00002064       0.00000000 </v>
    <v>       0.00002096       0.08884544       0.00000000 </v>
    <v>       0.00000000       0.00000000       0.06327494 </v>
   </varray>
  </crystal>
  <varray name="positions" >
   <v>       0.99103434       0.25216910       0.11949355 </v>
   <v>       0.99536033       0.24994330       0.62283296 </v>
   <v>       0.99950283       0.74873268       0.11961881 </v>
   <v>       0.99541685       0.74852268       0.62734246 </v>
   <v>       0.50683670       0.24922058       0.12008773 </v>
   <v>       0.50719672       0.24884894       0.62487196 </v>
   <v>       0.49817277       0.75027197       0.12057489 </v>
   <v>       0.50551085       0.75079414       0.62767135 </v>
   <v>       0.99536033       0.24994330       0.37716704 </v>
   <v>       0.99103434       0.25216910       0.88050645 </v>
   <v>       0.99541685       0.74852268       0.37265754 </v>
   <v>       0.99950283       0.74873268       0.88038119 </v>
   <v>       0.50719672       0.24884894       0.37512804 </v>
   <v>       0.50683670       0.24922058       0.87991227 </v>
   <v>       0.50551085       0.75079414       0.37232865 </v>
   <v>       0.49817277       0.75027197       0.87942511 </v>
   <v>       0.24741326       0.98714612       0.11745261 </v>
   <v>       0.25204904       0.99747771       0.62085530 </v>
   <v>       0.24920733       0.51037933       0.11880594 </v>
   <v>       0.25148838       0.49566456       0.63117801 </v>
   <v>       0.75221076       0.00240822       0.12052304 </v>
   <v>       0.75367809       0.00184290       0.62631399 </v>
   <v>       0.74913638       0.49973801       0.12126282 </v>
   <v>       0.74779968       0.50251788       0.62464729 </v>
   <v>       0.25204904       0.99747771       0.37914470 </v>
   <v>       0.24741326       0.98714612       0.88254739 </v>
   <v>       0.25148838       0.49566456       0.36882199 </v>
   <v>       0.24920733       0.51037933       0.88119406 </v>
   <v>       0.75367809       0.00184290       0.37368601 </v>
   <v>       0.75221076       0.00240822       0.87947696 </v>
   <v>       0.74779968       0.50251788       0.37535271 </v>
   <v>       0.74913638       0.49973801       0.87873718 </v>
   <v>       0.00000045       0.00016928       0.00000000 </v>
   <v>       0.50268364       0.00378940       0.50000000 </v>
   <v>       0.99859122       0.00265399       0.50000000 </v>
   <v>       0.24967564       0.24294615       0.00000000 </v>
   <v>       0.24900753       0.24708643       0.50000000 </v>
   <v>       0.49970303       0.99952063       0.00000000 </v>
   <v>       0.74993287       0.24799876       0.50000000 </v>
   <v>       0.99808741       0.50278414       0.25144100 </v>
   <v>       0.75033090       0.74816109       0.75309368 </v>
   <v>       0.24999973       0.75072558       0.75040709 </v>
   <v>       0.75023065       0.24934330       0.75100895 </v>
   <v>       0.24999973       0.75072558       0.24959291 </v>
   <v>       0.75033090       0.74816109       0.24690632 </v>
   <v>       0.50134524       0.50247437       0.25083401 </v>
   <v>       0.99747451       0.50150959       0.00000000 </v>
   <v>       0.99808741       0.50278414       0.74855900 </v>
   <v>       0.75023065       0.24934330       0.24899105 </v>
   <v>       0.50134524       0.50247437       0.74916599 </v>
   <v>       0.50099217       0.50016245       0.00000000 </v>
   <v>       0.74974742       0.74899460       0.50000000 </v>
   <v>       0.99188445       0.98625118       0.25010947 </v>
   <v>       0.98740837       0.49106184       0.50000000 </v>
   <v>       0.50673953       0.48734644       0.50000000 </v>
   <v>       0.74917680       0.25126348       0.00000000 </v>
   <v>       0.51394526       0.99044024       0.25002175 </v>
   <v>       0.24601066       0.77212330       0.50000000 </v>
   <v>       0.74903707       0.75016358       0.00000000 </v>
   <v>       0.51394526       0.99044024       0.74997825 </v>
   <v>       0.25426117       0.27493503       0.24784380 </v>
   <v>       0.25426117       0.27493503       0.75215620 </v>
   <v>       0.24965970       0.74971262       0.00000000 </v>
   <v>       0.99188445       0.98625118       0.74989053 </v>
   <v>       0.01104681       0.00823022       0.12865218 </v>
   <v>       0.00562350       0.01333736       0.62626917 </v>
   <v>       0.99939904       0.49977751       0.12636925 </v>
   <v>       0.01580685       0.51113875       0.62054442 </v>
   <v>       0.48658912       0.00579286       0.12907879 </v>
   <v>       0.49029048       0.01475566       0.62672033 </v>
   <v>       0.49867262       0.49701256       0.12627820 </v>
   <v>       0.48738778       0.51407844       0.62128456 </v>
   <v>       0.00562350       0.01333736       0.37373083 </v>
   <v>       0.01104681       0.00823022       0.87134782 </v>
   <v>       0.01580685       0.51113875       0.37945558 </v>
   <v>       0.99939904       0.49977751       0.87363075 </v>
   <v>       0.49029048       0.01475566       0.37327967 </v>
   <v>       0.48658912       0.00579286       0.87092121 </v>
   <v>       0.48738778       0.51407844       0.37871544 </v>
   <v>       0.49867262       0.49701256       0.87372180 </v>
   <v>       0.24411499       0.22234781       0.36280053 </v>
   <v>       0.24782599       0.21844406       0.86388047 </v>
   <v>       0.25331728       0.71528149       0.38926463 </v>
   <v>       0.24971195       0.75316271       0.87177478 </v>
   <v>       0.74926387       0.24683519       0.37606671 </v>
   <v>       0.75106386       0.25647886       0.87291294 </v>
   <v>       0.74916116       0.75093196       0.37558253 </v>
   <v>       0.75006620       0.74908848       0.87426447 </v>
   <v>       0.24782599       0.21844406       0.13611953 </v>
   <v>       0.24411499       0.22234781       0.63719947 </v>
   <v>       0.24971195       0.75316271       0.12822522 </v>
   <v>       0.25331728       0.71528149       0.61073537 </v>
   <v>       0.75106386       0.25647886       0.12708706 </v>
   <v>       0.74926387       0.24683519       0.62393329 </v>
   <v>       0.75006620       0.74908848       0.12573553 </v>
   <v>       0.74916116       0.75093196       0.62441747 </v>
   <v>       0.60858286       0.14278642       0.24867327 </v>
   <v>       0.86939870       0.11739798       0.24920775 </v>
   <v>       0.13715960       0.39071249       0.24777767 </v>
   <v>       0.39792439       0.35590847       0.25319809 </v>
   <v>       0.64020366       0.39423183       0.25627986 </v>
   <v>       0.89106247       0.36414674       0.25706409 </v>
   <v>       0.10781665       0.64433206       0.24896692 </v>
   <v>       0.35831204       0.60942569       0.24653078 </v>
   <v>       0.60780974       0.64199293       0.25002378 </v>
   <v>       0.85806509       0.60785112       0.25323794 </v>
   <v>       0.14561458       0.89533431       0.25887903 </v>
   <v>       0.38539698       0.86402211       0.25920669 </v>
   <v>       0.64629026       0.88976584       0.25153784 </v>
   <v>       0.89115564       0.85352145       0.25018743 </v>
   <v>       0.14239382       0.10910211       0.50000000 </v>
   <v>       0.38978577       0.14539216       0.50000000 </v>
   <v>       0.64167983       0.10894775       0.50000000 </v>
   <v>       0.89129134       0.14259886       0.50000000 </v>
   <v>       0.11444053       0.35907124       0.50000000 </v>
   <v>       0.35215546       0.39169735       0.50000000 </v>
   <v>       0.61025690       0.35653087       0.50000000 </v>
   <v>       0.85608168       0.38853885       0.50000000 </v>
   <v>       0.62992476       0.61817937       0.50000000 </v>
   <v>       0.89065445       0.64185277       0.50000000 </v>
   <v>       0.10391671       0.85856176       0.50000000 </v>
   <v>       0.36420571       0.88919753       0.50000000 </v>
   <v>       0.60877939       0.86596005       0.50000000 </v>
   <v>       0.86029364       0.89432601       0.50000000 </v>
   <v>       0.60858286       0.14278642       0.75132673 </v>
   <v>       0.86939870       0.11739798       0.75079225 </v>
   <v>       0.13715960       0.39071249       0.75222233 </v>
   <v>       0.39792439       0.35590847       0.74680191 </v>
   <v>       0.64020366       0.39423183       0.74372014 </v>
   <v>       0.89106247       0.36414674       0.74293591 </v>
   <v>       0.10781665       0.64433206       0.75103308 </v>
   <v>       0.35831204       0.60942569       0.75346922 </v>
   <v>       0.60780974       0.64199293       0.74997622 </v>
   <v>       0.85806509       0.60785112       0.74676206 </v>
   <v>       0.14561458       0.89533431       0.74112097 </v>
   <v>       0.38539698       0.86402211       0.74079331 </v>
   <v>       0.64629026       0.88976584       0.74846216 </v>
   <v>       0.89115564       0.85352145       0.74981257 </v>
   <v>       0.13871969       0.11183830       0.00000000 </v>
   <v>       0.38673706       0.13797962       0.00000000 </v>
   <v>       0.63442395       0.11314214       0.00000000 </v>
   <v>       0.88729718       0.13523313       0.00000000 </v>
   <v>       0.11698533       0.35868011       0.00000000 </v>
   <v>       0.35929654       0.38029134       0.00000000 </v>
   <v>       0.61204327       0.36499466       0.00000000 </v>
   <v>       0.86761763       0.38538756       0.00000000 </v>
   <v>       0.13424911       0.61322822       0.00000000 </v>
   <v>       0.38324474       0.63172786       0.00000000 </v>
   <v>       0.63197048       0.61355557       0.00000000 </v>
   <v>       0.88612417       0.63386845       0.00000000 </v>
   <v>       0.11411682       0.86528783       0.00000000 </v>
   <v>       0.36587476       0.88435111       0.00000000 </v>
   <v>       0.61204947       0.86751772       0.00000000 </v>
   <v>       0.86708268       0.88862429       0.00000000 </v>
  </varray>
 </structure>
 <calculation>
  <scstep>
   <time name="dav">  147.98  147.99</time>
   <time name="total">  150.31  150.33</time>
   <energy>
    <i name="alphaZ">   5631.90204654 </i>
    <i name="ewald"> -61908.53644615 </i>
    <i name="hartreedc"> -16680.65747927 </i>
    <i name="XCdc">   3074.67636556 </i>
    <i name="pawpsdc"> 113639.57481087 </i>
    <i name="pawaedc">-112691.85457735 </i>
    <i name="eentropy">     -0.00000000 </i>
    <i name="bandstr">  -7070.74411525 </i>
    <i name="atom">  74916.81196153 </i>
    <i name="e_fr_energy">  -1088.82743351 </i>
    <i name="e_wo_entrp">  -1088.82743351 </i>
    <i name="e_0_energy">  -1088.82743351 </i>
   </energy>
  </scstep>
  <scstep>
   <time name="diag">   16.53   16.54</time>
   <time name="diis">   15.81   15.83</time>
   <time name="orth">    9.42    9.43</time>
   <time name="total">   44.09   44.13</time>
   <energy>
    <i name="e_fr_energy">  -1088.82743670 </i>
    <i name="e_wo_entrp">  -1088.82743670 </i>
    <i name="e_0_energy">  -1088.82743670 </i>
   </energy>
  </scstep>
  <scstep>
   <time name="diag">   16.56   16.57</time>
   <time name="diis">   15.56   15.58</time>
   <time name="orth">    9.43    9.44</time>
   <time name="total">   43.88   43.96</time>
   <energy>
    <i name="e_fr_energy">  -1088.82743755 </i>
    <i name="e_wo_entrp">  -1088.82743755 </i>
    <i name="e_0_energy">  -1088.82743755 </i>
   </energy>
  </scstep>
  <scstep>
   <time name="diag">   16.55   16.57</time>
   <time name="diis">   15.09   15.09</time>
   <time name="orth">    9.44    9.44</time>
   <time name="total">   43.42   43.51</time>
   <energy>
    <i name="e_fr_energy">  -1088.82743948 </i>
    <i name="e_wo_entrp">  -1088.82743948 </i>
    <i name="e_0_energy">  -1088.82743948 </i>
   </energy>
  </scstep>
  <scstep>
   <time name="diag">   16.55   16.55</time>
   <time name="diis">   15.20   15.22</time>
   <time name="orth">    9.44    9.44</time>
   <time name="total">   43.53   43.61</time>
   <energy>
    <i name="e_fr_energy">  -1088.82744095 </i>
    <i name="e_wo_entrp">  -1088.82744095 </i>
    <i name="e_0_energy">  -1088.82744095 </i>
   </energy>
  </scstep>
  <scstep>
   <time name="diag">   16.57   16.58</time>
   <time name="diis">   13.96   13.97</time>
   <time name="orth">    9.42    9.42</time>
   <time name="total">   42.29   42.34</time>
   <energy>
    <i name="e_fr_energy">  -1088.82744187 </i>
    <i name="e_wo_entrp">  -1088.82744187 </i>
    <i name="e_0_energy">  -1088.82744187 </i>
   </energy>
  </scstep>
  <scstep>
   <time name="diag">   16.55   16.56</time>
   <time name="diis">   13.30   13.31</time>
   <time name="orth">    9.39    9.41</time>
   <time name="total">   41.59   41.66</time>
   <energy>
    <i name="e_fr_energy">  -1088.82744204 </i>
    <i name="e_wo_entrp">  -1088.82744204 </i>
    <i name="e_0_energy">  -1088.82744204 </i>
   </energy>
  </scstep>
  <scstep>
   <time name="diag">   16.57   16.57</time>
   <time name="diis">   12.45   12.45</time>
   <time name="orth">    9.42    9.42</time>
   <time name="total">   39.02   39.10</time>
   <energy>
    <i name="alphaZ">   5631.90204654 </i>
    <i name="ewald"> -61908.53644615 </i>
    <i name="hartreedc"> -16680.65789669 </i>
    <i name="XCdc">   3074.67577096 </i>
    <i name="pawpsdc"> 113635.87224692 </i>
    <i name="pawaedc">-112688.11768709 </i>
    <i name="eentropy">     -0.00000000 </i>
    <i name="bandstr">  -7070.77743818 </i>
    <i name="atom">  74916.81196153 </i>
    <i name="e_fr_energy">  -1088.82744215 </i>
    <i name="e_wo_entrp">  -1088.82744215 </i>
    <i name="e_0_energy">  -1088.82744215 </i>
   </energy>
  </scstep>
  <structure>
   <crystal>
    <varray name="basis" >
     <v>      11.25356664      -0.00265508       0.00000000 </v>
     <v>      -0.00261413      11.25550273       0.00000000 </v>
     <v>       0.00000000       0.00000000      15.80404462 </v>
    </varray>
    <i name="volume">   2001.81209094 </i>
    <varray name="rec_basis" >
     <v>       0.08886072       0.00002064       0.00000000 </v>
     <v>       0.00002096       0.08884544       0.00000000 </v>
     <v>       0.00000000       0.00000000       0.06327494 </v>
    </varray>
   </crystal>
   <varray name="positions" >
    <v>       0.99103434       0.25216910       0.11949355 </v>
    <v>       0.99536033       0.24994330       0.62283296 </v>
    <v>       0.99950283       0.74873268       0.11961881 </v>
    <v>       0.99541685       0.74852268       0.62734246 </v>
    <v>       0.50683670       0.24922058       0.12008773 </v>
    <v>       0.50719672       0.24884894       0.62487196 </v>
    <v>       0.49817277       0.75027197       0.12057489 </v>
    <v>       0.50551085       0.75079414       0.62767135 </v>
    <v>       0.99536033       0.24994330       0.37716704 </v>
    <v>       0.99103434       0.25216910       0.88050645 </v>
    <v>       0.99541685       0.74852268       0.37265754 </v>
    <v>       0.99950283       0.74873268       0.88038119 </v>
    <v>       0.50719672       0.24884894       0.37512804 </v>
    <v>       0.50683670       0.24922058       0.87991227 </v>
    <v>       0.50551085       0.75079414       0.37232865 </v>
    <v>       0.49817277       0.75027197       0.87942511 </v>
    <v>       0.24741326       0.98714612       0.11745261 </v>
    <v>       0.25204904       0.99747771       0.62085530 </v>
    <v>       0.24920733       0.51037933       0.11880594 </v>
    <v>       0.25148838       0.49566456       0.63117801 </v>
    <v>       0.75221076       0.00240822       0.12052304 </v>
    <v>       0.75367809       0.00184290       0.62631399 </v>
    <v>       0.74913638       0.49973801       0.12126282 </v>
    <v>       0.74779968       0.50251788       0.62464729 </v>
    <v>       0.25204904       0.99747771       0.37914470 </v>
    <v>       0.24741326       0.98714612       0.88254739 </v>
    <v>       0.25148838       0.49566456       0.36882199 </v>
    <v>       0.24920733       0.51037933       0.88119406 </v>
    <v>       0.75367809       0.00184290       0.37368601 </v>
    <v>       0.75221076       0.00240822       0.87947696 </v>
    <v>       0.74779968       0.50251788       0.37535271 </v>
    <v>       0.74913638       0.49973801       0.87873718 </v>
    <v>       0.00000045       0.00016928       0.00000000 </v>
    <v>       0.50268364       0.00378940       0.50000000 </v>
    <v>       0.99859122       0.00265399       0.50000000 </v>
    <v>       0.24967564       0.24294615       0.00000000 </v>
    <v>       0.24900753       0.24708643       0.50000000 </v>
    <v>       0.49970303       0.99952063       0.00000000 </v>
    <v>       0.74993287       0.24799876       0.50000000 </v>
    <v>       0.99808741       0.50278414       0.25144100 </v>
    <v>       0.75033090       0.74816109       0.75309368 </v>
    <v>       0.24999973       0.75072558       0.75040709 </v>
    <v>       0.75023065       0.24934330       0.75100895 </v>
    <v>       0.24999973       0.75072558       0.24959291 </v>
    <v>       0.75033090       0.74816109       0.24690632 </v>
    <v>       0.50134524       0.50247437       0.25083401 </v>
    <v>       0.99747451       0.50150959       0.00000000 </v>
    <v>       0.99808741       0.50278414       0.74855900 </v>
    <v>       0.75023065       0.24934330       0.24899105 </v>
    <v>       0.50134524       0.50247437       0.74916599 </v>
    <v>       0.50099217       0.50016245       0.00000000 </v>
    <v>       0.74974742       0.74899460       0.50000000 </v>
    <v>       0.99188445       0.98625118       0.25010947 </v>
    <v>       0.98740837       0.49106184       0.50000000 </v>
    <v>       0.50673953       0.48734644       0.50000000 </v>
    <v>       0.74917680       0.25126348       0.00000000 </v>
    <v>       0.51394526       0.99044024       0.25002175 </v>
    <v>       0.24601066       0.77212330       0.50000000 </v>
    <v>       0.74903707       0.75016358       0.00000000 </v>
    <v>       0.51394526       0.99044024       0.74997825 </v>
    <v>       0.25426117       0.27493503       0.24784380 </v>
    <v>       0.25426117       0.27493503       0.75215620 </v>
    <v>       0.24965970       0.74971262       0.00000000 </v>
    <v>       0.99188445       0.98625118       0.74989053 </v>
    <v>       0.01104681       0.00823022       0.12865218 </v>
    <v>       0.00562350       0.01333736       0.62626917 </v>
    <v>       0.99939904       0.49977751       0.12636925 </v>
    <v>       0.01580685       0.51113875       0.62054442 </v>
    <v>       0.48658912       0.00579286       0.12907879 </v>
    <v>       0.49029048       0.01475566       0.62672033 </v>
    <v>       0.49867262       0.49701256       0.12627820 </v>
    <v>       0.48738778       0.51407844       0.62128456 </v>
    <v>       0.00562350       0.01333736       0.37373083 </v>
    <v>       0.01104681       0.00823022       0.87134782 </v>
    <v>       0.01580685       0.51113875       0.37945558 </v>
    <v>       0.99939904       0.49977751       0.87363075 </v>
    <v>       0.49029048       0.01475566       0.37327967 </v>
    <v>       0.48658912       0.00579286       0.87092121 </v>
    <v>       0.48738778       0.51407844       0.37871544 </v>
    <v>       0.49867262       0.49701256       0.87372180 </v>
    <v>       0.24411499       0.22234781       0.36280053 </v>
    <v>       0.24782599       0.21844406       0.86388047 </v>
    <v>       0.25331728       0.71528149       0.38926463 </v>
    <v>       0.24971195       0.75316271       0.87177478 </v>
    <v>       0.74926387       0.24683519       0.37606671 </v>
    <v>       0.75106386       0.25647886       0.87291294 </v>
    <v>       0.74916116       0.75093196       0.37558253 </v>
    <v>       0.75006620       0.74908848       0.87426447 </v>
    <v>       0.24782599       0.21844406       0.13611953 </v>
    <v>       0.24411499       0.22234781       0.63719947 </v>
    <v>       0.24971195       0.75316271       0.12822522 </v>
    <v>       0.25331728       0.71528149       0.61073537 </v>
    <v>       0.75106386       0.25647886       0.12708706 </v>
    <v>       0.74926387       0.24683519       0.62393329 </v>
    <v>       0.75006620       0.74908848       0.12573553 </v>
    <v>       0.74916116       0.75093196       0.62441747 </v>
    <v>       0.60858286       0.14278642       0.24867327 </v>
    <v>       0.86939870       0.11739798       0.24920775 </v>
    <v>       0.13715960       0.39071249       0.24777767 </v>
    <v>       0.39792439       0.35590847       0.25319809 </v>
    <v>       0.64020366       0.39423183       0.25627986 </v>
    <v>       0.89106247       0.36414674       0.25706409 </v>
    <v>       0.10781665       0.64433206       0.24896692 </v>
    <v>       0.35831204       0.60942569       0.24653078 </v>
    <v>       0.60780974       0.64199293       0.25002378 </v>
    <v>       0.85806509       0.60785112       0.25323794 </v>
    <v>       0.14561458       0.89533431       0.25887903 </v>
    <v>       0.38539698       0.86402211       0.25920669 </v>
    <v>       0.64629026       0.88976584       0.25153784 </v>
    <v>       0.89115564       0.85352145       0.25018743 </v>
    <v>       0.14239382       0.10910211       0.50000000 </v>
    <v>       0.38978577       0.14539216       0.50000000 </v>
    <v>       0.64167983       0.10894775       0.50000000 </v>
    <v>       0.89129134       0.14259886       0.50000000 </v>
    <v>       0.11444053       0.35907124       0.50000000 </v>
    <v>       0.35215546       0.39169735       0.50000000 </v>
    <v>       0.61025690       0.35653087       0.50000000 </v>
    <v>       0.85608168       0.38853885       0.50000000 </v>
    <v>       0.62992476       0.61817937       0.50000000 </v>
    <v>       0.89065445       0.64185277       0.50000000 </v>
    <v>       0.10391671       0.85856176       0.50000000 </v>
    <v>       0.36420571       0.88919753       0.50000000 </v>
    <v>       0.60877939       0.86596005       0.50000000 </v>
    <v>       0.86029364       0.89432601       0.50000000 </v>
    <v>       0.60858286       0.14278642       0.75132673 </v>
    <v>       0.86939870       0.11739798       0.75079225 </v>
    <v>       0.13715960       0.39071249       0.75222233 </v>
    <v>       0.39792439       0.35590847       0.74680191 </v>
    <v>       0.64020366       0.39423183       0.74372014 </v>
    <v>       0.89106247       0.36414674       0.74293591 </v>
    <v>       0.10781665       0.64433206       0.75103308 </v>
    <v>       0.35831204       0.60942569       0.75346922 </v>
    <v>       0.60780974       0.64199293       0.74997622 </v>
    <v>       0.85806509       0.60785112       0.74676206 </v>
    <v>       0.14561458       0.89533431       0.74112097 </v>
    <v>       0.38539698       0.86402211       0.74079331 </v>
    <v>       0.64629026       0.88976584       0.74846216 </v>
    <v>       0.89115564       0.85352145       0.74981257 </v>
    <v>       0.13871969       0.11183830       0.00000000 </v>
    <v>       0.38673706       0.13797962       0.00000000 </v>
    <v>       0.63442395       0.11314214       0.00000000 </v>
    <v>       0.88729718       0.13523313       0.00000000 </v>
    <v>       0.11698533       0.35868011       0.00000000 </v>
    <v>       0.35929654       0.38029134       0.00000000 </v>
    <v>       0.61204327       0.36499466       0.00000000 </v>
    <v>       0.86761763       0.38538756       0.00000000 </v>
    <v>       0.13424911       0.61322822       0.00000000 </v>
    <v>       0.38324474       0.63172786       0.00000000 </v>
    <v>       0.63197048       0.61355557       0.00000000 </v>
    <v>       0.88612417       0.63386845       0.00000000 </v>
    <v>       0.11411682       0.86528783       0.00000000 </v>
    <v>       0.36587476       0.88435111       0.00000000 </v>
    <v>       0.61204947       0.86751772       0.00000000 </v>
    <v>       0.86708268       0.88862429       0.00000000 </v>
   </varray>
  </structure>
  <varray name="forces" >
   <v>       0.00258680       0.00117016       0.01326943 </v>
   <v>      -0.00626052       0.00505844       0.00051586 </v>
   <v>      -0.00431314       0.01043120       0.02090672 </v>
   <v>      -0.00474429       0.00223465      -0.01018290 </v>
   <v>      -0.01282997       0.00336609       0.01044007 </v>
   <v>       0.00373566       0.00076504      -0.00854423 </v>
   <v>      -0.00923321       0.00002342       0.01756375 </v>
   <v>       0.01027749       0.01691123      -0.00842700 </v>
   <v>      -0.00626052       0.00505844      -0.00051586 </v>
   <v>       0.00258680       0.00117016      -0.01326943 </v>
   <v>      -0.00474429       0.00223465       0.01018290 </v>
   <v>      -0.00431314       0.01043120      -0.02090672 </v>
   <v>       0.00373566       0.00076504       0.00854423 </v>
   <v>      -0.01282997       0.00336609      -0.01044007 </v>
   <v>       0.01027749       0.01691123       0.00842700 </v>
   <v>      -0.00923321       0.00002342      -0.01756375 </v>
   <v>       0.00086992       0.01263057       0.00676693 </v>
   <v>       0.00151436      -0.00056233       0.00849260 </v>
   <v>      -0.00844916      -0.01112620       0.01406782 </v>
   <v>      -0.00613543      -0.00369974       0.00339317 </v>
   <v>       0.00118022      -0.00654000       0.02297320 </v>
   <v>       0.00411329      -0.01046978      -0.00565543 </v>
   <v>      -0.01332855       0.00053918       0.01929182 </v>
   <v>       0.00043043       0.00241645      -0.01120630 </v>
   <v>       0.00151436      -0.00056233      -0.00849260 </v>
   <v>       0.00086992       0.01263057      -0.00676693 </v>
   <v>      -0.00613543      -0.00369974      -0.00339317 </v>
   <v>      -0.00844916      -0.01112620      -0.01406782 </v>
   <v>       0.00411329      -0.01046978       0.00565543 </v>
   <v>       0.00118022      -0.00654000      -0.02297320 </v>
   <v>       0.00043043       0.00241645       0.01120630 </v>
   <v>      -0.01332855       0.00053918      -0.01929182 </v>
   <v>      -0.00388226       0.02348492       0.00000000 </v>
   <v>      -0.00609063      -0.00079608       0.00000000 </v>
   <v>      -0.05017808      -0.03313596       0.00000000 </v>
   <v>       0.00471306      -0.01162634       0.00000000 </v>
   <v>       0.02492422       0.00347372       0.00000000 </v>
   <v>      -0.04896255       0.00596524       0.00000000 </v>
   <v>       0.00085822       0.00916261       0.00000000 </v>
   <v>       0.00017534       0.01748018      -0.00485430 </v>
   <v>      -0.00040859       0.02931349      -0.01999618 </v>
   <v>      -0.00050812       0.01685657       0.01553819 </v>
   <v>      -0.00852872      -0.01009599      -0.02911540 </v>
   <v>      -0.00050812       0.01685657      -0.01553819 </v>
   <v>      -0.00040859       0.02931349       0.01999618 </v>
   <v>       0.00877406      -0.00721970       0.00339215 </v>
   <v>       0.02256555      -0.03061658       0.00000000 </v>
   <v>       0.00017534       0.01748018       0.00485430 </v>
   <v>      -0.00852872      -0.01009599       0.02911540 </v>
   <v>       0.00877406      -0.00721970      -0.00339215 </v>
   <v>      -0.01879549      -0.02548476       0.00000000 </v>
   <v>       0.02430990       0.00151109       0.00000000 </v>
   <v>      -0.00620210      -0.02299374      -0.01580357 </v>
   <v>      -0.01295117       0.00583604       0.00000000 </v>
   <v>       0.02101000      -0.00541497       0.00000000 </v>
   <v>       0.00063651      -0.00087707       0.00000000 </v>
   <v>       0.01575376      -0.00977675      -0.01145181 </v>
   <v>       0.01047159       0.02166585       0.00000000 </v>
   <v>       0.00103859       0.01143365       0.00000000 </v>
   <v>       0.01575376      -0.00977675       0.01145181 </v>
   <v>      -0.01031825      -0.01663877      -0.03807818 </v>
   <v>      -0.01031825      -0.01663877       0.03807818 </v>
   <v>       0.01354620       0.00008057       0.00000000 </v>
   <v>      -0.00620210      -0.02299374       0.01580357 </v>
   <v>       0.00491075      -0.00553524      -0.00487421 </v>
   <v>       0.00100727      -0.00346139      -0.00999268 </v>
   <v>      -0.01453649       0.00932205       0.01051926 </v>
   <v>       0.00547338       0.00735094       0.00647531 </v>
   <v>       0.00642610       0.00340739      -0.00396815 </v>
   <v>      -0.00198473       0.00651420      -0.00442446 </v>
   <v>       0.00312012       0.00123373       0.00671861 </v>
   <v>      -0.00171032      -0.00494659       0.01302596 </v>
   <v>       0.00100727      -0.00346139       0.00999268 </v>
   <v>       0.00491075      -0.00553524       0.00487421 </v>
   <v>       0.00547338       0.00735094      -0.00647531 </v>
   <v>      -0.01453649       0.00932205      -0.01051926 </v>
   <v>      -0.00198473       0.00651420       0.00442446 </v>
   <v>       0.00642610       0.00340739       0.00396815 </v>
   <v>      -0.00171032      -0.00494659      -0.01302596 </v>
   <v>       0.00312012       0.00123373      -0.00671861 </v>
   <v>      -0.00763493      -0.01803383      -0.00309153 </v>
   <v>       0.01184827       0.00856526      -0.02910385 </v>
   <v>      -0.00401153      -0.00686313      -0.01149741 </v>
   <v>       0.00111285      -0.01581013      -0.00072215 </v>
   <v>       0.00000680      -0.01252055      -0.00819847 </v>
   <v>      -0.00321484      -0.00049255       0.01520929 </v>
   <v>       0.00487701      -0.01111733       0.00196744 </v>
   <v>       0.00400071      -0.01324738       0.03835137 </v>
   <v>       0.01184827       0.00856526       0.02910385 </v>
   <v>      -0.00763493      -0.01803383       0.00309153 </v>
   <v>       0.00111285      -0.01581013       0.00072215 </v>
   <v>      -0.00401153      -0.00686313       0.01149741 </v>
   <v>      -0.00321484      -0.00049255      -0.01520929 </v>
   <v>       0.00000680      -0.01252055       0.00819847 </v>
   <v>       0.00400071      -0.01324738      -0.03835137 </v>
   <v>       0.00487701      -0.01111733      -0.00196744 </v>
   <v>      -0.00168655       0.00615923       0.00316452 </v>
   <v>       0.02342991       0.01440879      -0.00882928 </v>
   <v>      -0.00313429      -0.00885578       0.00281793 </v>
   <v>       0.01152155      -0.02222831       0.00071758 </v>
   <v>      -0.00202471      -0.00856792      -0.01278895 </v>
   <v>       0.00242928       0.00918587      -0.00707109 </v>
   <v>       0.01227281       0.00186305      -0.00231867 </v>
   <v>      -0.00201262       0.00316456       0.00708303 </v>
   <v>      -0.01311603      -0.00777755      -0.00547762 </v>
   <v>       0.01850035      -0.00605580      -0.01204989 </v>
   <v>       0.00610747       0.01307389      -0.01691415 </v>
   <v>      -0.00736053       0.00531607      -0.01643071 </v>
   <v>      -0.01620423       0.00616081       0.00109670 </v>
   <v>       0.00039925       0.00702766      -0.01289904 </v>
   <v>       0.02341129       0.02090325       0.00000000 </v>
   <v>      -0.04234247       0.01805960       0.00000000 </v>
   <v>      -0.00844459       0.01376631       0.00000000 </v>
   <v>       0.00639666       0.00811289       0.00000000 </v>
   <v>       0.02620218      -0.00760445       0.00000000 </v>
   <v>      -0.01054786       0.00001246       0.00000000 </v>
   <v>       0.01781027      -0.00256109       0.00000000 </v>
   <v>       0.01275262      -0.00986324       0.00000000 </v>
   <v>      -0.01359400       0.01032526       0.00000000 </v>
   <v>       0.00363619       0.00008988       0.00000000 </v>
   <v>       0.00727060      -0.01938789       0.00000000 </v>
   <v>       0.00966961      -0.01190852       0.00000000 </v>
   <v>       0.01788880       0.01578929       0.00000000 </v>
   <v>       0.01840931      -0.00180308       0.00000000 </v>
   <v>      -0.00168655       0.00615923      -0.00316452 </v>
   <v>       0.02342991       0.01440879       0.00882928 </v>
   <v>      -0.00313429      -0.00885578      -0.00281793 </v>
   <v>       0.01152155      -0.02222831      -0.00071758 </v>
   <v>      -0.00202471      -0.00856792       0.01278895 </v>
   <v>       0.00242928       0.00918587       0.00707109 </v>
   <v>       0.01227281       0.00186305       0.00231867 </v>
   <v>      -0.00201262       0.00316456      -0.00708303 </v>
   <v>      -0.01311603      -0.00777755       0.00547762 </v>
   <v>       0.01850035      -0.00605580       0.01204989 </v>
   <v>       0.00610747       0.01307389       0.01691415 </v>
   <v>      -0.00736053       0.00531607       0.01643071 </v>
   <v>      -0.01620423       0.00616081      -0.00109670 </v>
   <v>       0.00039925       0.00702766       0.01289904 </v>
   <v>      -0.01724903       0.00944923       0.00000000 </v>
   <v>      -0.01891360      -0.01727042       0.00000000 </v>
   <v>       0.01498264       0.02540201       0.00000000 </v>
   <v>      -0.03353541      -0.00185513       0.00000000 </v>
   <v>      -0.00366353       0.02059833       0.00000000 </v>
   <v>       0.01388472       0.01378087       0.00000000 </v>
   <v>       0.01351119       0.02273535       0.00000000 </v>
   <v>       0.00311102      -0.00261675       0.00000000 </v>
   <v>      -0.03962531       0.00606948       0.00000000 </v>
   <v>      -0.00863998      -0.02298748       0.00000000 </v>
   <v>       0.01057374       0.01573749       0.00000000 </v>
   <v>      -0.02234709       0.00526581       0.00000000 </v>
   <v>       0.01919791       0.00421144       0.00000000 </v>
   <v>      -0.00302321      -0.00670857       0.00000000 </v>
   <v>       0.04120180       0.00644065       0.00000000 </v>
   <v>      -0.01512481      -0.04147227       0.00000000 </v>
  </varray>
  <varray name="stress" >
   <v>       0.40963076      -0.05089473       0.00000000 </v>
   <v>      -0.05089433       0.75216701       0.00000000 </v>
   <v>       0.00000000       0.00000000       0.10646962 </v>
  </varray>
  <energy>
   <i name="e_fr_energy">  -1088.82744215 </i>
   <i name="e_wo_entrp">  -1088.82744215 </i>
   <i name="e_0_energy">     -0.00000000 </i>
  </energy>
  <time name="totalsc">  539.45  541.53</time>
 </calculation>
 <calculation>
  <scstep>
   <time name="dav">  142.43  142.47</time>
   <time name="total">  144.73  144.84</time>
   <energy>
    <i name="alphaZ">   5629.10737301 </i>
    <i name="ewald"> -61898.49584292 </i>
    <i name="hartreedc"> -16677.70933314 </i>
    <i name="XCdc">   3074.01815771 </i>
    <i name="pawpsdc"> 113635.87971702 </i>
    <i name="pawaedc">-112688.12453667 </i>
    <i name="eentropy">     -0.00000000 </i>
    <i name="bandstr">  -7080.31591505 </i>
    <i name="atom">  74916.81196153 </i>
    <i name="e_fr_energy">  -1088.82841851 </i>
    <i name="e_wo_entrp">  -1088.82841851 </i>
    <i name="e_0_energy">  -1088.82841851 </i>
   </energy>
  </scstep>
  <scstep>
   <time name="diag">   16.55   16.55</time>
   <time name="diis">   25.91   25.91</time>
   <time name="orth">    9.42    9.42</time>
   <time name="total">   54.20   54.26</time>
   <energy>
    <i name="e_fr_energy">  -1088.82923417 </i>
    <i name="e_wo_entrp">  -1088.82923417 </i>
    <i name="e_0_energy">  -1088.82923417 </i>
   </energy>
  </scstep>
  <scstep>
   <time name="diag">   16.55   16.56</time>
   <time name="diis">   26.27   26.29</time>
   <time name="orth">    9.41    9.41</time>
   <time name="total">   54.58   54.67</time>
   <energy>
    <i name="e_fr_energy">  -1088.82902304 </i>
    <i name="e_wo_entrp">  -1088.82902304 </i>
    <i name="e_0_energy">  -1088.82902304 </i>
   </energy>
  </scstep>
  <scstep>
   <time name="diag">   16.58   16.62</time>
   <time name="diis">   24.55   24.58</time>
   <time name="orth">    9.40    9.40</time>
   <time name="total">   52.87   52.94</time>
   <energy>
    <i name="e_fr_energy">  -1088.82882130 </i>
    <i name="e_wo_entrp">  -1088.82882130 </i>
    <i name="e_0_energy">  -1088.82882130 </i>
   </energy>
  </scstep>
  <scstep>
   <time name="diag">   16.56   16.57</time>
   <time name="diis">   16.55   16.55</time>
   <time name="orth">    9.42    9.42</time>
   <time name="total">   44.86   44.91</time>
   <energy>
    <i name="e_fr_energy">  -1088.82875649 </i>
    <i name="e_wo_entrp">  -1088.82875649 </i>
    <i name="e_0_energy">  -1088.82875649 </i>
   </energy>
  </scstep>
  <scstep>
   <time name="diag">   16.57   16.57</time>
   <time name="diis">   16.15   16.16</time>
   <time name="orth">    9.44    9.44</time>
   <time name="total">   44.48   44.59</time>
   <energy>
    <i name="e_fr_energy">  -1088.82874479 </i>
    <i name="e_wo_entrp">  -1088.82874479 </i>
    <i name="e_0_energy">  -1088.82874479 </i>
   </energy>
  </scstep>
  <scstep>
   <time name="diag">   16.59   16.61</time>
   <time name="diis">   15.90   15.90</time>
   <time name="orth">    9.44    9.44</time>
   <time name="total">   44.28   44.31</time>
   <energy>
    <i name="e_fr_energy">  -1088.82874398 </i>
    <i name="e_wo_entrp">  -1088.82874398 </i>
    <i name="e_0_energy">  -1088.82874398 </i>
   </energy>
  </scstep>
  <scstep>
   <time name="diag">   16.60   16.60</time>
   <time name="diis">   15.76   15.77</time>
   <time name="orth">    9.41    9.41</time>
   <time name="total">   42.34   42.38</time>
   <energy>
    <i name="alphaZ">   5629.10737301 </i>
    <i name="ewald"> -61898.49584292 </i>
    <i name="hartreedc"> -16684.85141207 </i>
    <i name="XCdc">   3074.50416137 </i>
    <i name="pawpsdc"> 113520.68851010 </i>
    <i name="pawaedc">-112572.86964871 </i>
    <i name="eentropy">     -0.00000000 </i>
    <i name="bandstr">  -7073.72384441 </i>
    <i name="atom">  74916.81196153 </i>
    <i name="e_fr_energy">  -1088.82874211 </i>
    <i name="e_wo_entrp">  -1088.82874211 </i>
    <i name="e_0_energy">  -1088.82874211 </i>
   </energy>
  </scstep>
  <structure>
   <crystal>
    <varray name="basis" >
     <v>      11.25537098      -0.00288003       0.00000000 </v>
     <v>      -0.00283876      11.25881640       0.00000000 </v>
     <v>       0.00000000       0.00000000      15.80470321 </v>
    </varray>
    <i name="volume">   2002.80592725 </i>
    <varray name="rec_basis" >
     <v>       0.08884648       0.00002240       0.00000000 </v>
     <v>       0.00002273       0.08881929       0.00000000 </v>
     <v>       0.00000000       0.00000000       0.06327230 </v>
    </varray>
   </crystal>
   <varray name="positions" >
    <v>       0.99104543       0.25217412       0.11953405 </v>
    <v>       0.99533350       0.24996498       0.62283453 </v>
    <v>       0.99948435       0.74877739       0.11968262 </v>
    <v>       0.99539651       0.74853226       0.62731138 </v>
    <v>       0.50678170       0.24923500       0.12011960 </v>
    <v>       0.50721273       0.24885223       0.62484588 </v>
    <v>       0.49813319       0.75027206       0.12062851 </v>
    <v>       0.50555492       0.75086663       0.62764563 </v>
    <v>       0.99533350       0.24996498       0.37716547 </v>
    <v>       0.99104543       0.25217412       0.88046595 </v>
    <v>       0.99539651       0.74853226       0.37268862 </v>
    <v>       0.99948435       0.74877739       0.88031738 </v>
    <v>       0.50721273       0.24885223       0.37515412 </v>
    <v>       0.50678170       0.24923500       0.87988040 </v>
    <v>       0.50555492       0.75086663       0.37235437 </v>
    <v>       0.49813319       0.75027206       0.87937149 </v>
    <v>       0.24741700       0.98720025       0.11747326 </v>
    <v>       0.25205553       0.99747530       0.62088123 </v>
    <v>       0.24917110       0.51033164       0.11884888 </v>
    <v>       0.25146207       0.49564870       0.63118836 </v>
    <v>       0.75221581       0.00238019       0.12059316 </v>
    <v>       0.75369571       0.00179802       0.62629673 </v>
    <v>       0.74907925       0.49974031       0.12132171 </v>
    <v>       0.74780153       0.50252824       0.62461309 </v>
    <v>       0.25205553       0.99747530       0.37911877 </v>
    <v>       0.24741700       0.98720025       0.88252674 </v>
    <v>       0.25146207       0.49564870       0.36881164 </v>
    <v>       0.24917110       0.51033164       0.88115112 </v>
    <v>       0.75369571       0.00179802       0.37370327 </v>
    <v>       0.75221581       0.00238019       0.87940684 </v>
    <v>       0.74780153       0.50252824       0.37538691 </v>
    <v>       0.74907925       0.49974031       0.87867829 </v>
    <v>      -0.00001617       0.00026994       0.00000000 </v>
    <v>       0.50265753       0.00378598       0.50000000 </v>
    <v>       0.99837608       0.00251192       0.50000000 </v>
    <v>       0.24969583       0.24289632       0.00000000 </v>
    <v>       0.24911438       0.24710134       0.50000000 </v>
    <v>       0.49949314       0.99954615       0.00000000 </v>
    <v>       0.74993656       0.24803803       0.50000000 </v>
    <v>       0.99808818       0.50285906       0.25142618 </v>
    <v>       0.75032918       0.74828673       0.75303264 </v>
    <v>       0.24999757       0.75079783       0.75045452 </v>
    <v>       0.75019408       0.24930001       0.75092008 </v>
    <v>       0.24999757       0.75079783       0.24954548 </v>
    <v>       0.75032918       0.74828673       0.24696736 </v>
    <v>       0.50138284       0.50244344       0.25084437 </v>
    <v>       0.99757122       0.50137839       0.00000000 </v>
    <v>       0.99808818       0.50285906       0.74857382 </v>
    <v>       0.75019408       0.24930001       0.24907992 </v>
    <v>       0.50138284       0.50244344       0.74915563 </v>
    <v>       0.50091157       0.50005320       0.00000000 </v>
    <v>       0.74985164       0.74900110       0.50000000 </v>
    <v>       0.99185784       0.98615262       0.25006122 </v>
    <v>       0.98735286       0.49108684       0.50000000 </v>
    <v>       0.50682959       0.48732326       0.50000000 </v>
    <v>       0.74917953       0.25125972       0.00000000 </v>
    <v>       0.51401278       0.99039835       0.24998679 </v>
    <v>       0.24605557       0.77221618       0.50000000 </v>
    <v>       0.74904153       0.75021259       0.00000000 </v>
    <v>       0.51401278       0.99039835       0.75001321 </v>
    <v>       0.25421692       0.27486371       0.24772756 </v>
    <v>       0.25421692       0.27486371       0.75227244 </v>
    <v>       0.24971778       0.74971298       0.00000000 </v>
    <v>       0.99185784       0.98615262       0.74993878 </v>
    <v>       0.01106785       0.00820650       0.12863730 </v>
    <v>       0.00562782       0.01332253       0.62623866 </v>
    <v>       0.99933674       0.49981745       0.12640136 </v>
    <v>       0.01583032       0.51117026       0.62056419 </v>
    <v>       0.48661667       0.00580747       0.12906668 </v>
    <v>       0.49028198       0.01478357       0.62670682 </v>
    <v>       0.49868600       0.49701785       0.12629871 </v>
    <v>       0.48738045       0.51405723       0.62132432 </v>
    <v>       0.00562782       0.01332253       0.37376134 </v>
    <v>       0.01106785       0.00820650       0.87136270 </v>
    <v>       0.01583032       0.51117026       0.37943581 </v>
    <v>       0.99933674       0.49981745       0.87359864 </v>
    <v>       0.49028198       0.01478357       0.37329318 </v>
    <v>       0.48661667       0.00580747       0.87093332 </v>
    <v>       0.48738045       0.51405723       0.37867568 </v>
    <v>       0.49868600       0.49701785       0.87370129 </v>
    <v>       0.24408224       0.22227050       0.36279110 </v>
    <v>       0.24787679       0.21848079       0.86379163 </v>
    <v>       0.25330008       0.71525207       0.38922953 </v>
    <v>       0.24971670       0.75309495       0.87177257 </v>
    <v>       0.74926389       0.24678153       0.37604168 </v>
    <v>       0.75105007       0.25647674       0.87295937 </v>
    <v>       0.74918205       0.75088431       0.37558854 </v>
    <v>       0.75008334       0.74903171       0.87438154 </v>
    <v>       0.24787679       0.21848079       0.13620837 </v>
    <v>       0.24408224       0.22227050       0.63720890 </v>
    <v>       0.24971670       0.75309495       0.12822743 </v>
    <v>       0.25330008       0.71525207       0.61077047 </v>
    <v>       0.75105007       0.25647674       0.12704063 </v>
    <v>       0.74926389       0.24678153       0.62395832 </v>
    <v>       0.75008334       0.74903171       0.12561846 </v>
    <v>       0.74918205       0.75088431       0.62441146 </v>
    <v>       0.60857564       0.14281282       0.24868293 </v>
    <v>       0.86949915       0.11745976       0.24918080 </v>
    <v>       0.13714616       0.39067453       0.24778627 </v>
    <v>       0.39797376       0.35581320       0.25320029 </v>
    <v>       0.64019498       0.39419511       0.25624082 </v>
    <v>       0.89107290       0.36418611       0.25704251 </v>
    <v>       0.10786926       0.64434006       0.24895984 </v>
    <v>       0.35830341       0.60943925       0.24655240 </v>
    <v>       0.60775351       0.64195958       0.25000705 </v>
    <v>       0.85814439       0.60782518       0.25320116 </v>
    <v>       0.14564077       0.89539035       0.25882740 </v>
    <v>       0.38536543       0.86404488       0.25915654 </v>
    <v>       0.64622080       0.88979223       0.25154119 </v>
    <v>       0.89115736       0.85355158       0.25014805 </v>
    <v>       0.14249420       0.10919173       0.50000000 </v>
    <v>       0.38960427       0.14546953       0.50000000 </v>
    <v>       0.64164364       0.10900674       0.50000000 </v>
    <v>       0.89131877       0.14263364       0.50000000 </v>
    <v>       0.11455285       0.35903867       0.50000000 </v>
    <v>       0.35211025       0.39169739       0.50000000 </v>
    <v>       0.61033325       0.35651991       0.50000000 </v>
    <v>       0.85613634       0.38849658       0.50000000 </v>
    <v>       0.62986650       0.61822362       0.50000000 </v>
    <v>       0.89067004       0.64185316       0.50000000 </v>
    <v>       0.10394786       0.85847867       0.50000000 </v>
    <v>       0.36424716       0.88914650       0.50000000 </v>
    <v>       0.60885609       0.86602775       0.50000000 </v>
    <v>       0.86037256       0.89431830       0.50000000 </v>
    <v>       0.60857564       0.14281282       0.75131707 </v>
    <v>       0.86949915       0.11745976       0.75081920 </v>
    <v>       0.13714616       0.39067453       0.75221373 </v>
    <v>       0.39797376       0.35581320       0.74679971 </v>
    <v>       0.64019498       0.39419511       0.74375918 </v>
    <v>       0.89107290       0.36418611       0.74295749 </v>
    <v>       0.10786926       0.64434006       0.75104016 </v>
    <v>       0.35830341       0.60943925       0.75344760 </v>
    <v>       0.60775351       0.64195958       0.74999295 </v>
    <v>       0.85814439       0.60782518       0.74679884 </v>
    <v>       0.14564077       0.89539035       0.74117260 </v>
    <v>       0.38536543       0.86404488       0.74084346 </v>
    <v>       0.64622080       0.88979223       0.74845881 </v>
    <v>       0.89115736       0.85355158       0.74985195 </v>
    <v>       0.13864576       0.11187879       0.00000000 </v>
    <v>       0.38665597       0.13790558       0.00000000 </v>
    <v>       0.63448820       0.11325103       0.00000000 </v>
    <v>       0.88715342       0.13522515       0.00000000 </v>
    <v>       0.11696965       0.35876839       0.00000000 </v>
    <v>       0.35935607       0.38035042       0.00000000 </v>
    <v>       0.61210121       0.36509212       0.00000000 </v>
    <v>       0.86763096       0.38537635       0.00000000 </v>
    <v>       0.13407924       0.61325420       0.00000000 </v>
    <v>       0.38320768       0.63162933       0.00000000 </v>
    <v>       0.63201582       0.61362303       0.00000000 </v>
    <v>       0.88602837       0.63389100       0.00000000 </v>
    <v>       0.11419912       0.86530590       0.00000000 </v>
    <v>       0.36586179       0.88432235       0.00000000 </v>
    <v>       0.61222610       0.86754537       0.00000000 </v>
    <v>       0.86701780       0.88844652       0.00000000 </v>
   </varray>
  </structure>
  <varray name="forces" >
   <v>      -0.01102938       0.00508117       0.01520227 </v>
   <v>       0.00775590       0.00353099      -0.00121539 </v>
   <v>      -0.00878483      -0.00238519      -0.00365295 </v>
   <v>       0.00944848      -0.00543151      -0.00378628 </v>
   <v>       0.00352689       0.00930625       0.00802268 </v>
   <v>      -0.00511362      -0.00219008      -0.00252190 </v>
   <v>       0.00098651      -0.01168030       0.00373425 </v>
   <v>       0.00046717       0.00892013      -0.00315481 </v>
   <v>       0.00775590       0.00353099       0.00121539 </v>
   <v>      -0.01102938       0.00508117      -0.01520227 </v>
   <v>       0.00944848      -0.00543151       0.00378628 </v>
   <v>      -0.00878483      -0.00238519       0.00365295 </v>
   <v>      -0.00511362      -0.00219008       0.00252190 </v>
   <v>       0.00352689       0.00930625      -0.00802268 </v>
   <v>       0.00046717       0.00892013       0.00315481 </v>
   <v>       0.00098651      -0.01168030      -0.00373425 </v>
   <v>      -0.00407955       0.00100445       0.00746091 </v>
   <v>      -0.00569524       0.00766634      -0.00316619 </v>
   <v>      -0.00594286       0.00037112       0.01355835 </v>
   <v>      -0.00351550      -0.00580236       0.00521088 </v>
   <v>      -0.00345379       0.00064706      -0.00336412 </v>
   <v>       0.00017680       0.00038138      -0.00450258 </v>
   <v>      -0.00976300       0.00440429       0.00225712 </v>
   <v>       0.00127818       0.00002194       0.00232226 </v>
   <v>      -0.00569524       0.00766634       0.00316619 </v>
   <v>      -0.00407955       0.00100445      -0.00746091 </v>
   <v>      -0.00351550      -0.00580236      -0.00521088 </v>
   <v>      -0.00594286       0.00037112      -0.01355835 </v>
   <v>       0.00017680       0.00038138       0.00450258 </v>
   <v>      -0.00345379       0.00064706       0.00336412 </v>
   <v>       0.00127818       0.00002194      -0.00232226 </v>
   <v>      -0.00976300       0.00440429      -0.00225712 </v>
   <v>      -0.04262951      -0.01690778       0.00000000 </v>
   <v>      -0.01255854       0.01263245       0.00000000 </v>
   <v>       0.05206036       0.02180805       0.00000000 </v>
   <v>      -0.00679025       0.01099698       0.00000000 </v>
   <v>      -0.04254879       0.01400729       0.00000000 </v>
   <v>       0.07182891       0.00286981       0.00000000 </v>
   <v>       0.01740063      -0.01445168       0.00000000 </v>
   <v>      -0.00375394      -0.00603185      -0.01256837 </v>
   <v>      -0.00309239      -0.01375315       0.04750150 </v>
   <v>       0.00348366      -0.00688978       0.00718568 </v>
   <v>       0.01884342       0.00740819       0.06157023 </v>
   <v>       0.00348366      -0.00688978      -0.00718568 </v>
   <v>      -0.00309239      -0.01375315      -0.04750150 </v>
   <v>      -0.00805938      -0.00966824      -0.00460496 </v>
   <v>      -0.03455884       0.03450165       0.00000000 </v>
   <v>      -0.00375394      -0.00603185       0.01256837 </v>
   <v>       0.01884342       0.00740819      -0.06157023 </v>
   <v>      -0.00805938      -0.00966824       0.00460496 </v>
   <v>       0.02279396       0.01755284       0.00000000 </v>
   <v>      -0.02293929      -0.00013524       0.00000000 </v>
   <v>       0.00667598       0.00252587      -0.00326771 </v>
   <v>       0.01931196      -0.01025949       0.00000000 </v>
   <v>      -0.00358948      -0.00559203       0.00000000 </v>
   <v>      -0.00692511       0.00322904       0.00000000 </v>
   <v>      -0.00673775       0.00754398      -0.00570039 </v>
   <v>       0.00499113      -0.00362636       0.00000000 </v>
   <v>       0.00241737      -0.00894785       0.00000000 </v>
   <v>      -0.00673775       0.00754398       0.00570039 </v>
   <v>      -0.00211710       0.00947293       0.03093913 </v>
   <v>      -0.00211710       0.00947293      -0.03093913 </v>
   <v>      -0.01051114      -0.01348930       0.00000000 </v>
   <v>       0.00667598       0.00252587       0.00326771 </v>
   <v>       0.00510239      -0.00188450      -0.00501811 </v>
   <v>      -0.00771537      -0.01376296      -0.00426794 </v>
   <v>      -0.00738224       0.00284458       0.00615971 </v>
   <v>       0.00158420       0.00793087      -0.00969383 </v>
   <v>       0.00082374       0.00437147      -0.00215948 </v>
   <v>       0.00006134       0.00202100      -0.00391909 </v>
   <v>      -0.00109742      -0.00247530       0.00772326 </v>
   <v>       0.00698323      -0.00796020      -0.00504531 </v>
   <v>      -0.00771537      -0.01376296       0.00426794 </v>
   <v>       0.00510239      -0.00188450       0.00501811 </v>
   <v>       0.00158420       0.00793087       0.00969383 </v>
   <v>      -0.00738224       0.00284458      -0.00615971 </v>
   <v>       0.00006134       0.00202100       0.00391909 </v>
   <v>       0.00082374       0.00437147       0.00215948 </v>
   <v>       0.00698323      -0.00796020       0.00504531 </v>
   <v>      -0.00109742      -0.00247530      -0.00772326 </v>
   <v>      -0.00412270      -0.01173787      -0.02790224 </v>
[...]
       <r>   -16.5237     0.0000    32.0000 </r>
       <r>   -16.3711     0.0000    32.0000 </r>
       <r>   -16.2186     0.0000    32.0000 </r>
       <r>   -16.0660     0.0000    32.0000 </r>
       <r>   -15.9135     0.0000    32.0000 </r>
       <r>   -15.7609     0.0000    32.0000 </r>
       <r>   -15.6083     0.0000    32.0000 </r>
       <r>   -15.4558     0.0000    32.0000 </r>
       <r>   -15.3032     0.3573    32.0545 </r>
       <r>   -15.1507     8.6048    33.3672 </r>
       <r>   -14.9981    19.6360    36.3628 </r>
       <r>   -14.8456    42.8248    42.8959 </r>
       <r>   -14.6930    52.5631    50.9146 </r>
       <r>   -14.5405    37.4763    56.6318 </r>
       <r>   -14.3879    34.0427    61.8252 </r>
       <r>   -14.2354    44.3374    68.5890 </r>
       <r>   -14.0828    79.2468    80.6785 </r>
       <r>   -13.9302   106.6554    96.9492 </r>
       <r>   -13.7777    86.5360   110.1507 </r>
       <r>   -13.6251    59.5267   119.2317 </r>
       <r>   -13.4726    18.1395   121.9990 </r>
       <r>   -13.3200     0.0066   122.0000 </r>
       <r>   -13.1675     0.0000   122.0000 </r>
       <r>   -13.0149     0.0000   122.0000 </r>
       <r>   -12.8624     0.0000   122.0000 </r>
       <r>   -12.7098     3.4796   122.5308 </r>
       <r>   -12.5573    60.9448   131.8282 </r>
       <r>   -12.4047   146.8660   154.2333 </r>
       <r>   -12.2522   142.3745   175.9532 </r>
       <r>   -12.0996   126.7548   195.2902 </r>
       <r>   -11.9470   105.8083   211.4317 </r>
       <r>   -11.7945    37.2920   217.1208 </r>
       <r>   -11.6419     5.7632   218.0000 </r>
       <r>   -11.4894     0.0003   218.0000 </r>
       <r>   -11.3368     0.0000   218.0000 </r>
       <r>   -11.1843     0.0000   218.0000 </r>
       <r>   -11.0317     0.0000   218.0000 </r>
       <r>   -10.8792     0.0000   218.0000 </r>
       <r>   -10.7266     0.0000   218.0000 </r>
       <r>   -10.5741     0.0000   218.0000 </r>
       <r>   -10.4215     0.0000   218.0000 </r>
       <r>   -10.2689     0.0000   218.0000 </r>
       <r>   -10.1164     0.0000   218.0000 </r>
       <r>    -9.9638     0.0000   218.0000 </r>
       <r>    -9.8113     0.0000   218.0000 </r>
       <r>    -9.6587     0.0000   218.0000 </r>
       <r>    -9.5062     0.0000   218.0000 </r>
       <r>    -9.3536     0.0000   218.0000 </r>
       <r>    -9.2011     0.0000   218.0000 </r>
       <r>    -9.0485     0.0000   218.0000 </r>
       <r>    -8.8960     0.0000   218.0000 </r>
       <r>    -8.7434     0.0000   218.0000 </r>
       <r>    -8.5908     0.0000   218.0000 </r>
       <r>    -8.4383     0.0000   218.0000 </r>
       <r>    -8.2857     0.0000   218.0000 </r>
       <r>    -8.1332     0.0000   218.0000 </r>
       <r>    -7.9806     0.0000   218.0000 </r>
       <r>    -7.8281     0.0000   218.0000 </r>
       <r>    -7.6755     0.0000   218.0000 </r>
       <r>    -7.5230     0.0000   218.0000 </r>
       <r>    -7.3704     0.0000   218.0000 </r>
       <r>    -7.2179     0.0000   218.0000 </r>
       <r>    -7.0653     0.0000   218.0000 </r>
       <r>    -6.9127     0.0000   218.0000 </r>
       <r>    -6.7602     0.0000   218.0000 </r>
       <r>    -6.6076     0.0000   218.0000 </r>
       <r>    -6.4551     0.0000   218.0000 </r>
       <r>    -6.3025     0.0000   218.0000 </r>
       <r>    -6.1500     0.0000   218.0000 </r>
       <r>    -5.9974     0.0000   218.0000 </r>
       <r>    -5.8449     0.0000   218.0000 </r>
       <r>    -5.6923     0.0000   218.0000 </r>
       <r>    -5.5398     0.0000   218.0000 </r>
       <r>    -5.3872     0.0000   218.0000 </r>
       <r>    -5.2346     0.0000   218.0000 </r>
       <r>    -5.0821     0.0000   218.0000 </r>
       <r>    -4.9295     0.0000   218.0000 </r>
       <r>    -4.7770     0.6958   218.1062 </r>
       <r>    -4.6244    10.6348   219.7285 </r>
       <r>    -4.4719     6.4290   220.7093 </r>
       <r>    -4.3193    12.7659   222.6568 </r>
       <r>    -4.1668     2.2496   223.0000 </r>
       <r>    -4.0142     0.0000   223.0000 </r>
       <r>    -3.8617     0.0000   223.0000 </r>
       <r>    -3.7091     0.0000   223.0000 </r>
       <r>    -3.5565     0.0000   223.0000 </r>
       <r>    -3.4040     0.0000   223.0000 </r>
       <r>    -3.2514     0.0000   223.0000 </r>
       <r>    -3.0989     0.0000   223.0000 </r>
       <r>    -2.9463     0.0000   223.0000 </r>
       <r>    -2.7938     0.0000   223.0000 </r>
       <r>    -2.6412     0.0000   223.0000 </r>
       <r>    -2.4887     0.1823   223.0278 </r>
       <r>    -2.3361     7.3037   224.1420 </r>
       <r>    -2.1836    14.1364   226.2986 </r>
       <r>    -2.0310    32.4197   231.2444 </r>
       <r>    -1.8784    24.9494   235.0505 </r>
       <r>    -1.7259    36.8663   240.6746 </r>
       <r>    -1.5733    38.2556   246.5107 </r>
       <r>    -1.4208    49.6352   254.0828 </r>
       <r>    -1.2682    52.5209   262.0950 </r>
       <r>    -1.1157    71.6575   273.0267 </r>
       <r>    -0.9631    79.0513   285.0864 </r>
       <r>    -0.8106    74.7619   296.4916 </r>
       <r>    -0.6580    83.1923   309.1830 </r>
       <r>    -0.5055    96.1555   323.8519 </r>
       <r>    -0.3529    94.4038   338.2536 </r>
       <r>    -0.2003    71.0831   349.0977 </r>
       <r>    -0.0478    56.3647   357.6964 </r>
       <r>     0.1048    54.1000   365.9495 </r>
       <r>     0.2573    51.6310   373.8261 </r>
       <r>     0.4099    50.2644   381.4941 </r>
       <r>     0.5624    54.1287   389.7517 </r>
       <r>     0.7150    52.3837   397.7431 </r>
       <r>     0.8675    49.9677   405.3659 </r>
       <r>     1.0201    52.1511   413.3217 </r>
       <r>     1.1726    62.1575   422.8041 </r>
       <r>     1.3252    81.2006   435.1917 </r>
       <r>     1.4777    85.9837   448.3089 </r>
       <r>     1.6303    83.9136   461.1102 </r>
       <r>     1.7829    71.9442   472.0857 </r>
       <r>     1.9354    64.8444   481.9780 </r>
       <r>     2.0880    34.4363   487.2314 </r>
       <r>     2.2405    24.1463   490.9150 </r>
       <r>     2.3931    13.6487   492.9972 </r>
       <r>     2.5456     0.0186   493.0000 </r>
       <r>     2.6982     0.0000   493.0000 </r>
       <r>     2.8507     0.0000   493.0000 </r>
       <r>     3.0033     0.0000   493.0000 </r>
       <r>     3.1558     0.0000   493.0000 </r>
       <r>     3.3084     0.0000   493.0000 </r>
       <r>     3.4610     0.0000   493.0000 </r>
       <r>     3.6135     0.0000   493.0000 </r>
       <r>     3.7661     0.0000   493.0000 </r>
       <r>     3.9186     0.0000   493.0000 </r>
       <r>     4.0712     0.0000   493.0000 </r>
       <r>     4.2237     0.0000   493.0000 </r>
       <r>     4.3763     1.1848   493.1807 </r>
       <r>     4.5288    20.2562   496.2709 </r>
       <r>     4.6814    41.5652   502.6119 </r>
       <r>     4.8339    48.2521   509.9729 </r>
       <r>     4.9865    39.1586   515.9468 </r>
       <r>     5.1391    49.7819   523.5412 </r>
       <r>     5.2916    61.3876   532.9062 </r>
       <r>     5.4442    65.3167   542.8705 </r>
       <r>     5.5967    60.9129   552.1631 </r>
       <r>     5.7493    79.5040   564.2917 </r>
       <r>     5.9018    67.6855   574.6175 </r>
       <r>     6.0544    73.0273   585.7581 </r>
       <r>     6.2069    79.7982   597.9317 </r>
       <r>     6.3595    62.1978   607.4202 </r>
       <r>     6.5120    18.5141   610.2446 </r>
       <r>     6.6646    11.3458   611.9755 </r>
       <r>     6.8172    15.9133   614.4031 </r>
       <r>     6.9697    20.0281   617.4585 </r>
       <r>     7.1223    22.2008   620.8453 </r>
       <r>     7.2748    16.5080   623.3637 </r>
       <r>     7.4274    17.2285   625.9920 </r>
       <r>     7.5799    22.0216   629.3515 </r>
       <r>     7.7325    14.8360   631.6148 </r>
       <r>     7.8850    21.2190   634.8518 </r>
       <r>     8.0376    16.6010   637.3844 </r>
       <r>     8.1901    29.5973   641.8996 </r>
       <r>     8.3427    25.2278   645.7482 </r>
       <r>     8.4953    19.3583   648.7014 </r>
       <r>     8.6478    20.3380   651.8041 </r>
       <r>     8.8004    28.2739   656.1174 </r>
       <r>     8.9529    35.5946   661.5475 </r>
       <r>     9.1055    35.1737   666.9134 </r>
       <r>     9.2580    35.2139   672.2854 </r>
       <r>     9.4106    40.5012   678.4641 </r>
       <r>     9.5631    37.6157   684.2025 </r>
       <r>     9.7157    51.3850   692.0415 </r>
       <r>     9.8682    52.5570   700.0593 </r>
       <r>    10.0208    65.0289   709.9798 </r>
       <r>    10.1734    63.0687   719.6012 </r>
       <r>    10.3259    60.9264   728.8958 </r>
       <r>    10.4785    59.4456   737.9645 </r>
       <r>    10.6310    57.0019   746.6604 </r>
       <r>    10.7836    57.0715   755.3669 </r>
       <r>    10.9361    59.1905   764.3966 </r>
       <r>    11.0887    23.6038   767.9975 </r>
       <r>    11.2412     0.0163   768.0000 </r>
       <r>    11.3938     0.0000   768.0000 </r>
       <r>    11.5463     0.0000   768.0000 </r>
       <r>    11.6989     0.0000   768.0000 </r>
       <r>    11.8515     0.0000   768.0000 </r>
       <r>    12.0040     0.0000   768.0000 </r>
       <r>    12.1566     0.0000   768.0000 </r>
       <r>    12.3091     0.0000   768.0000 </r>
       <r>    12.4617     0.0000   768.0000 </r>
       <r>    12.6142     0.0000   768.0000 </r>
       <r>    12.7668     0.0000   768.0000 </r>
       <r>    12.9193     0.0000   768.0000 </r>
       <r>    13.0719     0.0000   768.0000 </r>
      </set>
     </set>
    </array>
   </total>
  </dos>
 </calculation>
 <structure name="finalpos" >
  <crystal>
   <varray name="basis" >
    <v>      11.25472813      -0.00347016       0.00000000 </v>
    <v>      -0.00342868      11.25980172       0.00000000 </v>
    <v>       0.00000000       0.00000000      15.80032196 </v>
   </varray>
   <i name="volume">   2002.31152634 </i>
   <varray name="rec_basis" >
    <v>       0.08885155       0.00002706       0.00000000 </v>
    <v>       0.00002738       0.08881152       0.00000000 </v>
    <v>       0.00000000       0.00000000       0.06328985 </v>
   </varray>
  </crystal>
  <varray name="positions" >
   <v>       0.99098038       0.25222576       0.11967100 </v>
   <v>       0.99534270       0.24999909       0.62283866 </v>
   <v>       0.99941816       0.74882295       0.11973310 </v>
   <v>       0.99544377       0.74850187       0.62724638 </v>
   <v>       0.50671741       0.24933718       0.12020596 </v>
   <v>       0.50720730       0.24881636       0.62478693 </v>
   <v>       0.49806275       0.75017333       0.12072260 </v>
   <v>       0.50563248       0.75104239       0.62758425 </v>
   <v>       0.99534270       0.24999909       0.37716134 </v>
   <v>       0.99098038       0.25222576       0.88032900 </v>
   <v>       0.99544377       0.74850187       0.37275362 </v>
   <v>       0.99941816       0.74882295       0.88026690 </v>
   <v>       0.50720730       0.24881636       0.37521307 </v>
   <v>       0.50671741       0.24933718       0.87979404 </v>
   <v>       0.50563248       0.75104239       0.37241575 </v>
   <v>       0.49806275       0.75017333       0.87927740 </v>
   <v>       0.24739546       0.98727701       0.11750867 </v>
   <v>       0.25201475       0.99753984       0.62089980 </v>
   <v>       0.24906515       0.51026622       0.11897080 </v>
   <v>       0.25141612       0.49561572       0.63123607 </v>
   <v>       0.75217876       0.00234590       0.12067285 </v>
   <v>       0.75371134       0.00174371       0.62622107 </v>
   <v>       0.74891697       0.49978729       0.12141702 </v>
   <v>       0.74780694       0.50254952       0.62458613 </v>
   <v>       0.25201475       0.99753984       0.37910020 </v>
   <v>       0.24739546       0.98727701       0.88249133 </v>
   <v>       0.25141612       0.49561572       0.36876393 </v>
   <v>       0.24906515       0.51026622       0.88102920 </v>
   <v>       0.75371134       0.00174371       0.37377893 </v>
   <v>       0.75217876       0.00234590       0.87932715 </v>
   <v>       0.74780694       0.50254952       0.37541387 </v>
   <v>       0.74891697       0.49978729       0.87858298 </v>
   <v>      -0.00025270       0.00026129       0.00000000 </v>
   <v>       0.50259522       0.00390846       0.50000000 </v>
   <v>       0.99857827       0.00252253       0.50000000 </v>
   <v>       0.24963559       0.24290829       0.00000000 </v>
   <v>       0.24898806       0.24714857       0.50000000 </v>
   <v>       0.49966154       0.99958671       0.00000000 </v>
   <v>       0.74996274       0.24791889       0.50000000 </v>
   <v>       0.99803616       0.50291899       0.25133633 </v>
   <v>       0.75025200       0.74826090       0.75313448 </v>
   <v>       0.25004196       0.75082183       0.75055476 </v>
   <v>       0.75023770       0.24933115       0.75096169 </v>
   <v>       0.25004196       0.75082183       0.24944524 </v>
   <v>       0.75025200       0.74826090       0.24686552 </v>
   <v>       0.50135316       0.50232364       0.25086474 </v>
   <v>       0.99742036       0.50150838       0.00000000 </v>
   <v>       0.99803616       0.50291899       0.74866367 </v>
   <v>       0.75023770       0.24933115       0.24903831 </v>
   <v>       0.50135316       0.50232364       0.74913526 </v>
   <v>       0.50090272       0.50008891       0.00000000 </v>
   <v>       0.74987511       0.74898327       0.50000000 </v>
   <v>       0.99189440       0.98607847       0.24999629 </v>
   <v>       0.98741610       0.49106104       0.50000000 </v>
   <v>       0.50691630       0.48728068       0.50000000 </v>
   <v>       0.74912294       0.25131297       0.00000000 </v>
   <v>       0.51401220       0.99045045       0.24993440 </v>
   <v>       0.24617099       0.77226956       0.50000000 </v>
   <v>       0.74905552       0.75016703       0.00000000 </v>
   <v>       0.51401220       0.99045045       0.75006560 </v>
   <v>       0.25417546       0.27481786       0.24775458 </v>
   <v>       0.25417546       0.27481786       0.75224542 </v>
   <v>       0.24967247       0.74964503       0.00000000 </v>
   <v>       0.99189440       0.98607847       0.75000371 </v>
   <v>       0.01111158       0.00816238       0.12858223 </v>
   <v>       0.00556057       0.01315718       0.62619535 </v>
   <v>       0.99919481       0.49988204       0.12646916 </v>
   <v>       0.01588040       0.51128486       0.62051805 </v>
   <v>       0.48668272       0.00586921       0.12903717 </v>
   <v>       0.49025726       0.01482636       0.62669423 </v>
   <v>       0.49868842       0.49700269       0.12635864 </v>
   <v>       0.48744736       0.51395818       0.62134818 </v>
   <v>       0.00556057       0.01315718       0.37380465 </v>
   <v>       0.01111158       0.00816238       0.87141777 </v>
   <v>       0.01588040       0.51128486       0.37948195 </v>
   <v>       0.99919481       0.49988204       0.87353084 </v>
   <v>       0.49025726       0.01482636       0.37330577 </v>
   <v>       0.48668272       0.00586921       0.87096283 </v>
   <v>       0.48744736       0.51395818       0.37865182 </v>
   <v>       0.49868842       0.49700269       0.87364136 </v>
   <v>       0.24399265       0.22205184       0.36261974 </v>
   <v>       0.24800989       0.21842058       0.86385399 </v>
   <v>       0.25325405       0.71525560       0.38922117 </v>
   <v>       0.24975641       0.75292129       0.87185102 </v>
   <v>       0.74927956       0.24659167       0.37602166 </v>
   <v>       0.75101226       0.25645322       0.87293519 </v>
   <v>       0.74925855       0.75080108       0.37558186 </v>
   <v>       0.75011969       0.74889542       0.87430711 </v>
   <v>       0.24800989       0.21842058       0.13614601 </v>
   <v>       0.24399265       0.22205184       0.63738026 </v>
   <v>       0.24975641       0.75292129       0.12814898 </v>
   <v>       0.25325405       0.71525560       0.61077883 </v>
   <v>       0.75101226       0.25645322       0.12706481 </v>
   <v>       0.74927956       0.24659167       0.62397834 </v>
   <v>       0.75011969       0.74889542       0.12569289 </v>
   <v>       0.74925855       0.75080108       0.62441814 </v>
   <v>       0.60856974       0.14279876       0.24871419 </v>
   <v>       0.86977544       0.11760932       0.24912475 </v>
   <v>       0.13707077       0.39059346       0.24779139 </v>
   <v>       0.39808883       0.35552695       0.25319022 </v>
   <v>       0.64020681       0.39407074       0.25617011 </v>
   <v>       0.89103655       0.36427035       0.25702846 </v>
   <v>       0.10800795       0.64438063       0.24893920 </v>
   <v>       0.35831152       0.60947746       0.24658881 </v>
   <v>       0.60780800       0.64200570       0.25000146 </v>
   <v>       0.85821486       0.60801415       0.25315547 </v>
   <v>       0.14569010       0.89556974       0.25865198 </v>
   <v>       0.38536916       0.86416809       0.25900019 </v>
   <v>       0.64618538       0.88972607       0.25158010 </v>
   <v>       0.89104275       0.85357702       0.25006186 </v>
   <v>       0.14247158       0.10915473       0.50000000 </v>
   <v>       0.38939651       0.14545129       0.50000000 </v>
   <v>       0.64149937       0.10919678       0.50000000 </v>
   <v>       0.89134779       0.14264528       0.50000000 </v>
   <v>       0.11470338       0.35913306       0.50000000 </v>
   <v>       0.35220985       0.39179413       0.50000000 </v>
   <v>       0.61053631       0.35660242       0.50000000 </v>
   <v>       0.85628193       0.38838747       0.50000000 </v>
   <v>       0.62976215       0.61841822       0.50000000 </v>
   <v>       0.89064292       0.64187494       0.50000000 </v>
   <v>       0.10390531       0.85831875       0.50000000 </v>
   <v>       0.36450078       0.88906262       0.50000000 </v>
   <v>       0.60915613       0.86624972       0.50000000 </v>
   <v>       0.86043906       0.89413850       0.50000000 </v>
   <v>       0.60856974       0.14279876       0.75128581 </v>
   <v>       0.86977544       0.11760932       0.75087525 </v>
   <v>       0.13707077       0.39059346       0.75220861 </v>
   <v>       0.39808883       0.35552695       0.74680978 </v>
   <v>       0.64020681       0.39407074       0.74382989 </v>
   <v>       0.89103655       0.36427035       0.74297154 </v>
   <v>       0.10800795       0.64438063       0.75106080 </v>
   <v>       0.35831152       0.60947746       0.75341119 </v>
   <v>       0.60780800       0.64200570       0.74999854 </v>
   <v>       0.85821486       0.60801415       0.74684453 </v>
   <v>       0.14569010       0.89556974       0.74134802 </v>
   <v>       0.38536916       0.86416809       0.74099981 </v>
   <v>       0.64618538       0.88972607       0.74841990 </v>
   <v>       0.89104275       0.85357702       0.74993814 </v>
   <v>       0.13843191       0.11213708       0.00000000 </v>
   <v>       0.38633585       0.13768490       0.00000000 </v>
   <v>       0.63437196       0.11344396       0.00000000 </v>
   <v>       0.88694728       0.13504564       0.00000000 </v>
   <v>       0.11709686       0.35887463       0.00000000 </v>
   <v>       0.35941170       0.38026359       0.00000000 </v>
   <v>       0.61222928       0.36536891       0.00000000 </v>
   <v>       0.86775293       0.38528480       0.00000000 </v>
   <v>       0.13371319       0.61339586       0.00000000 </v>
   <v>       0.38298726       0.63134373       0.00000000 </v>
   <v>       0.63185079       0.61368217       0.00000000 </v>
   <v>       0.88595375       0.63371655       0.00000000 </v>
   <v>       0.11441424       0.86554935       0.00000000 </v>
   <v>       0.36594305       0.88429459       0.00000000 </v>
   <v>       0.61242237       0.86792657       0.00000000 </v>
   <v>       0.86716826       0.88824920       0.00000000 </v>
  </varray>
 </structure>
</modeling>
