       N       E                     dE             d eps       ncg     rms          rms(c)
DAV:   1    -0.112151939273E+04   -0.11215E+04   -0.89119E-02  6544   0.687E-01    0.573E-02
RMM:   2    -0.112151938780E+04    0.49268E-05   -0.86100E-05  3671   0.150E-02    0.103E-01
RMM:   3    -0.112151938727E+04    0.52857E-06   -0.18017E-05  3331   0.829E-03    0.111E-02
RMM:   4    -0.112151938728E+04   -0.89785E-08   -0.49171E-06  2369   0.299E-03    0.509E-03
RMM:   5    -0.112151938772E+04   -0.43552E-06   -0.31936E-06  2300   0.299E-03    0.981E-03
RMM:   6    -0.112151938774E+04   -0.25262E-07   -0.11434E-06  1611   0.228E-03    0.272E-03
RMM:   7    -0.112151938773E+04    0.10623E-07   -0.51773E-07  1149   0.211E-03    0.120E-03
RMM:   8    -0.112151938777E+04   -0.44107E-07   -0.29728E-07  1001   0.194E-03
   1 F= -.11215194E+04 E0= -.11215194E+04  d E =-.112152E+04  mag=    40.0000
       N       E                     dE             d eps       ncg     rms          rms(c)
DAV:   1    -0.112151928528E+04    0.10245E-03   -0.43154E-01  6464   0.774E-01    0.354E-01
RMM:   2    -0.112152037616E+04   -0.10909E-02   -0.13807E-02  6154   0.161E-01    0.265E-01
RMM:   3    -0.112152036163E+04    0.14529E-04   -0.76574E-04  5812   0.501E-02    0.160E-01
RMM:   4    -0.112152026509E+04    0.96537E-04   -0.26049E-04  4160   0.203E-02    0.105E-01
RMM:   5    -0.112152024772E+04    0.17371E-04   -0.13344E-04  3804   0.162E-02    0.817E-02
RMM:   6    -0.112152025175E+04   -0.40310E-05   -0.50003E-05  3568   0.115E-02    0.392E-02
RMM:   7    -0.112152025665E+04   -0.48987E-05   -0.20529E-05  3526   0.593E-03    0.147E-02
RMM:   8    -0.112152026108E+04   -0.44306E-05   -0.12688E-05  3311   0.510E-03
   2 F= -.11215203E+04 E0= -.11215203E+04  d E =-.873308E-03  mag=    40.0000
       N       E                     dE             d eps       ncg     rms          rms(c)
DAV:   1    -0.112152028840E+04   -0.31750E-04   -0.14418E-02  6736   0.141E-01    0.637E-02
RMM:   2    -0.112152032260E+04   -0.34201E-04   -0.44344E-04  5145   0.299E-02    0.500E-02
RMM:   3    -0.112152032378E+04   -0.11806E-05   -0.30814E-05  3357   0.110E-02    0.307E-02
RMM:   4    -0.112152032109E+04    0.26905E-05   -0.11484E-05  3255   0.492E-03    0.191E-02
RMM:   5    -0.112152031918E+04    0.19095E-05   -0.43854E-06  2651   0.348E-03    0.924E-03
RMM:   6    -0.112152031892E+04    0.26591E-06   -0.17988E-06  1768   0.236E-03    0.412E-03
RMM:   7    -0.112152031876E+04    0.15332E-06   -0.49554E-07   915   0.191E-03    0.225E-03
RMM:   8    -0.112152031848E+04    0.28349E-06   -0.27526E-07   734   0.180E-03
   3 F= -.11215203E+04 E0= -.11215203E+04  d E =-.930706E-03  mag=    40.0000
       N       E                     dE             d eps       ncg     rms          rms(c)
DAV:   1    -0.112152030589E+04    0.12873E-04   -0.40691E-01  6240   0.757E-01    0.186E-01
RMM:   2    -0.112152127494E+04   -0.96905E-03   -0.10555E-02  6176   0.137E-01    0.132E-01
RMM:   3    -0.112152129056E+04   -0.15622E-04   -0.52654E-04  5116   0.446E-02    0.823E-02
RMM:   4    -0.112152126315E+04    0.27412E-04   -0.10736E-04  3559   0.141E-02    0.496E-02
RMM:   5    -0.112152125265E+04    0.10502E-04   -0.57287E-05  3519   0.100E-02    0.273E-02
RMM:   6    -0.112152125423E+04   -0.15796E-05   -0.18080E-05  3458   0.730E-03    0.172E-02
RMM:   7    -0.112152125516E+04   -0.92830E-06   -0.93635E-06  3164   0.400E-03    0.745E-03
RMM:   8    -0.112152125542E+04   -0.26741E-06   -0.47278E-06  2709   0.396E-03
   4 F= -.11215213E+04 E0= -.11215213E+04  d E =-.936942E-03  mag=    40.0000
       N       E                     dE             d eps       ncg     rms          rms(c)
DAV:   1    -0.112152090550E+04    0.34965E-03   -0.25095E-01  6264   0.595E-01    0.147E-01
RMM:   2    -0.112152151034E+04   -0.60484E-03   -0.65762E-03  6180   0.107E-01    0.104E-01
RMM:   3    -0.112152151576E+04   -0.54140E-05   -0.29858E-04  4121   0.352E-02    0.657E-02
RMM:   4    -0.112152150163E+04    0.14122E-04   -0.80241E-05  3541   0.128E-02    0.391E-02
RMM:   5    -0.112152149636E+04    0.52724E-05   -0.49236E-05  3515   0.105E-02    0.522E-02
RMM:   6    -0.112152149685E+04   -0.48454E-06   -0.22801E-05  3431   0.765E-03    0.136E-02
RMM:   7    -0.112152149777E+04   -0.92201E-06   -0.89939E-06  3174   0.432E-03    0.939E-03
RMM:   8    -0.112152149815E+04   -0.38461E-06   -0.55369E-06  2797   0.371E-03
   5 F= -.11215215E+04 E0= -.11215215E+04  d E =-.117967E-02  mag=    40.0000
       N       E                     dE             d eps       ncg     rms          rms(c)
DAV:   1    -0.112152158945E+04   -0.91686E-04   -0.30701E-01  6240   0.651E-01    0.154E-01
RMM:   2    -0.112152227176E+04   -0.68230E-03   -0.79038E-03  6194   0.116E-01    0.109E-01
RMM:   3    -0.112152226397E+04    0.77893E-05   -0.38646E-04  4697   0.387E-02    0.688E-02
RMM:   4    -0.112152224245E+04    0.21521E-04   -0.10530E-04  3548   0.134E-02    0.413E-02
RMM:   5    -0.112152223735E+04    0.50933E-05   -0.39163E-05  3517   0.916E-03    0.375E-02
RMM:   6    -0.112152223807E+04   -0.71761E-06   -0.16274E-05  3406   0.638E-03    0.124E-02
RMM:   7    -0.112152223839E+04   -0.31717E-06   -0.83038E-06  3033   0.408E-03    0.712E-03
RMM:   8    -0.112152223827E+04    0.11995E-06   -0.48081E-06  2591   0.346E-03
   6 F= -.11215222E+04 E0= -.11215222E+04  d E =-.740115E-03  mag=    40.0000
