<?xml version="1.0" encoding="ISO-8859-1"?>
<modeling>
 <generator>
  <i name="program" type="string">vasp </i>
  <i name="version" type="string">5.4.1  </i>
  <i name="subversion" type="string">05Feb16 (build Jan 25 2017 20:16:33) complex                          parallel </i>
  <i name="platform" type="string">BWXE6 </i>
  <i name="date" type="string">2019 08 11 </i>
  <i name="time" type="string">11:32:32 </i>
 </generator>
 <incar>
  <i type="string" name="SYSTEM"> STF</i>
  <i type="string" name="PREC">normal</i>
  <i type="string" name="ALGO"> Fast</i>
  <i type="int" name="ISPIN">     2</i>
  <i type="int" name="NELM">    40</i>
  <i type="int" name="NELMIN">     8</i>
  <i type="int" name="IBRION">     2</i>
  <i name="EDIFF">      0.00010000</i>
  <i name="EDIFFG">     -0.03000000</i>
  <i type="int" name="NSW">    30</i>
  <i type="int" name="ISIF">     3</i>
  <i name="ENCUT">    520.00000000</i>
  <i type="int" name="NBANDS">   768</i>
  <v name="MAGMOM">      0.60000000      0.60000000      0.60000000      0.60000000      0.60000000      0.60000000      0.60000000      0.60000000      0.60000000      0.60000000      0.60000000      0.60000000      0.60000000      0.60000000      0.60000000      0.60000000      0.60000000      0.60000000      0.60000000      0.60000000
      0.60000000      0.60000000      0.60000000      0.60000000      0.60000000      0.60000000      0.60000000      0.60000000      0.60000000      0.60000000      0.60000000      0.60000000      0.60000000      0.60000000      0.60000000      0.60000000      0.60000000      0.60000000      0.60000000      0.60000000
      0.60000000      0.60000000      0.60000000      0.60000000      0.60000000      0.60000000      0.60000000      0.60000000      0.60000000      0.60000000      0.60000000      0.60000000      0.60000000      0.60000000      0.60000000      0.60000000      5.00000000      5.00000000      5.00000000      5.00000000
      5.00000000      5.00000000      5.00000000      5.00000000      0.60000000      0.60000000      0.60000000      0.60000000      0.60000000      0.60000000      0.60000000      0.60000000      0.60000000      0.60000000      0.60000000      0.60000000      0.60000000      0.60000000      0.60000000      0.60000000
      0.60000000      0.60000000      0.60000000      0.60000000      0.60000000      0.60000000      0.60000000      0.60000000      0.60000000      0.60000000      0.60000000      0.60000000      0.60000000      0.60000000      0.60000000      0.60000000      0.60000000      0.60000000      0.60000000      0.60000000
      0.60000000      0.60000000      0.60000000      0.60000000      0.60000000      0.60000000      0.60000000      0.60000000      0.60000000      0.60000000      0.60000000      0.60000000      0.60000000      0.60000000      0.60000000      0.60000000      0.60000000      0.60000000      0.60000000      0.60000000
      0.60000000      0.60000000      0.60000000      0.60000000      0.60000000      0.60000000      0.60000000      0.60000000      0.60000000      0.60000000      0.60000000      0.60000000      0.60000000      0.60000000      0.60000000      0.60000000      0.60000000      0.60000000      0.60000000      0.60000000
      0.60000000      0.60000000      0.60000000      0.60000000      0.60000000      0.60000000      0.60000000      0.60000000      0.60000000      0.60000000      0.60000000      0.60000000      0.60000000      0.60000000      0.60000000      0.60000000</v>
  <i type="string" name="LREAL"> Auto</i>
  <i type="int" name="ISMEAR">     0</i>
  <i name="SIGMA">      0.05000000</i>
  <i type="int" name="LMAXMIX">     4</i>
  <v type="int" name="KPOINT_BSE">    -1     0     0     0</v>
  <i type="int" name="NELM">    40</i>
  <i type="logical" name="LDAU"> T  </i>
  <v type="int" name="LDAUTYPE">     2</v>
  <v type="int" name="LDAUL">     0     2     2     0</v>
  <v name="LDAUU">      0.00000000      3.00000000      5.00000000      0.00000000</v>
  <v name="LDAUJ">      0.00000000      0.00000000      0.00000000      0.00000000</v>
  <i type="int" name="LDAUPRINT">     1</i>
 </incar>
 <kpoints>
  <generation param="Monkhorst-Pack">
   <v type="int" name="divisions">       2        2        2 </v>
   <v name="usershift">      0.00000000       0.00000000       0.00000000 </v>
   <v name="genvec1">      0.50000000       0.00000000       0.00000000 </v>
   <v name="genvec2">      0.00000000       0.50000000       0.00000000 </v>
   <v name="genvec3">      0.00000000       0.00000000       0.50000000 </v>
   <v name="shift">      0.50000000       0.50000000       0.50000000 </v>
  </generation>
  <varray name="kpointlist" >
   <v>       0.25000000       0.25000000       0.25000000 </v>
   <v>      -0.25000000       0.25000000       0.25000000 </v>
  </varray>
  <varray name="weights" >
   <v>       0.50000000 </v>
   <v>       0.50000000 </v>
  </varray>
 </kpoints>
 <parameters>
  <separator name="general" >
   <i type="string" name="SYSTEM">STF</i>
   <i type="logical" name="LCOMPAT"> F  </i>
  </separator>
  <separator name="electronic" >
   <i type="string" name="PREC">normal</i>
   <i name="ENMAX">    520.00000000</i>
   <i name="ENAUG">    605.39200000</i>
   <i name="EDIFF">      0.00010000</i>
   <i type="int" name="IALGO">    68</i>
   <i type="int" name="IWAVPR">    11</i>
   <i type="int" name="NBANDS">   768</i>
   <i name="NELECT">   1032.00000000</i>
   <i type="int" name="TURBO">     0</i>
   <i type="int" name="IRESTART">     0</i>
   <i type="int" name="NREBOOT">     0</i>
   <i type="int" name="NMIN">     0</i>
   <i name="EREF">      0.00000000</i>
   <separator name="electronic smearing" >
    <i type="int" name="ISMEAR">     0</i>
    <i name="SIGMA">      0.05000000</i>
    <i name="KSPACING">      0.50000000</i>
    <i type="logical" name="KGAMMA"> T  </i>
   </separator>
   <separator name="electronic projectors" >
    <i type="logical" name="LREAL"> T  </i>
    <v name="ROPT">     -0.00050000     -0.00050000     -0.00050000     -0.00050000</v>
    <i type="int" name="LMAXPAW">  -100</i>
    <i type="int" name="LMAXMIX">     4</i>
    <i type="logical" name="NLSPLINE"> F  </i>
   </separator>
   <separator name="electronic startup" >
    <i type="int" name="ISTART">     1</i>
    <i type="int" name="ICHARG">     0</i>
    <i type="int" name="INIWAV">     1</i>
   </separator>
   <separator name="electronic spin" >
    <i type="int" name="ISPIN">     2</i>
    <i type="logical" name="LNONCOLLINEAR"> F  </i>
    <v name="MAGMOM">      0.60000000      0.60000000      0.60000000      0.60000000      0.60000000      0.60000000      0.60000000      0.60000000      0.60000000      0.60000000      0.60000000      0.60000000      0.60000000      0.60000000      0.60000000      0.60000000      0.60000000      0.60000000      0.60000000      0.60000000
      0.60000000      0.60000000      0.60000000      0.60000000      0.60000000      0.60000000      0.60000000      0.60000000      0.60000000      0.60000000      0.60000000      0.60000000      0.60000000      0.60000000      0.60000000      0.60000000      0.60000000      0.60000000      0.60000000      0.60000000
      0.60000000      0.60000000      0.60000000      0.60000000      0.60000000      0.60000000      0.60000000      0.60000000      0.60000000      0.60000000      0.60000000      0.60000000      0.60000000      0.60000000      0.60000000      0.60000000      5.00000000      5.00000000      5.00000000      5.00000000
      5.00000000      5.00000000      5.00000000      5.00000000      0.60000000      0.60000000      0.60000000      0.60000000      0.60000000      0.60000000      0.60000000      0.60000000      0.60000000      0.60000000      0.60000000      0.60000000      0.60000000      0.60000000      0.60000000      0.60000000
      0.60000000      0.60000000      0.60000000      0.60000000      0.60000000      0.60000000      0.60000000      0.60000000      0.60000000      0.60000000      0.60000000      0.60000000      0.60000000      0.60000000      0.60000000      0.60000000      0.60000000      0.60000000      0.60000000      0.60000000
      0.60000000      0.60000000      0.60000000      0.60000000      0.60000000      0.60000000      0.60000000      0.60000000      0.60000000      0.60000000      0.60000000      0.60000000      0.60000000      0.60000000      0.60000000      0.60000000      0.60000000      0.60000000      0.60000000      0.60000000
      0.60000000      0.60000000      0.60000000      0.60000000      0.60000000      0.60000000      0.60000000      0.60000000      0.60000000      0.60000000      0.60000000      0.60000000      0.60000000      0.60000000      0.60000000      0.60000000      0.60000000      0.60000000      0.60000000      0.60000000
      0.60000000      0.60000000      0.60000000      0.60000000      0.60000000      0.60000000      0.60000000      0.60000000      0.60000000      0.60000000      0.60000000      0.60000000      0.60000000      0.60000000      0.60000000      0.60000000</v>
    <i name="NUPDOWN">     -1.00000000</i>
    <i type="logical" name="LSORBIT"> F  </i>
    <v name="SAXIS">      0.00000000      0.00000000      1.00000000</v>
    <i type="logical" name="LSPIRAL"> F  </i>
    <v name="QSPIRAL">      0.00000000      0.00000000      0.00000000</v>
    <i type="logical" name="LZEROZ"> F  </i>
   </separator>
   <separator name="electronic exchange-correlation" >
    <i type="logical" name="LASPH"> F  </i>
    <i type="logical" name="LMETAGGA"> F  </i>
   </separator>
   <separator name="electronic convergence" >
    <i type="int" name="NELM">    40</i>
    <i type="int" name="NELMDL">     0</i>
    <i type="int" name="NELMIN">     8</i>
    <i name="ENINI">    520.00000000</i>
    <separator name="electronic convergence detail" >
     <i type="logical" name="LDIAG"> T  </i>
     <i type="logical" name="LSUBROT"> F  </i>
     <i name="WEIMIN">      0.00100000</i>
     <i name="EBREAK">      0.00000003</i>
     <i name="DEPER">      0.30000000</i>
     <i type="int" name="NRMM">     4</i>
     <i name="TIME">      0.40000000</i>
    </separator>
   </separator>
   <separator name="electronic mixer" >
    <i name="AMIX">      0.40000000</i>
    <i name="BMIX">      1.00000000</i>
    <i name="AMIN">      0.10000000</i>
    <i name="AMIX_MAG">      1.60000000</i>
    <i name="BMIX_MAG">      1.00000000</i>
    <separator name="electronic mixer details" >
     <i type="int" name="IMIX">     4</i>
     <i type="logical" name="MIXFIRST"> F  </i>
     <i type="int" name="MAXMIX">   -45</i>
     <i name="WC">    100.00000000</i>
     <i type="int" name="INIMIX">     1</i>
     <i type="int" name="MIXPRE">     1</i>
     <i type="int" name="MREMOVE">     5</i>
    </separator>
   </separator>
   <separator name="electronic dipolcorrection" >
    <i type="logical" name="LDIPOL"> F  </i>
    <i type="logical" name="LMONO"> F  </i>
    <i type="int" name="IDIPOL">     0</i>
    <i name="EPSILON">      1.00000000</i>
    <v name="DIPOL">   -100.00000000   -100.00000000   -100.00000000</v>
    <i name="EFIELD">      0.00000000</i>
   </separator>
  </separator>
  <separator name="grids" >
   <i type="int" name="NGX">    64</i>
   <i type="int" name="NGY">    64</i>
   <i type="int" name="NGZ">    90</i>
   <i type="int" name="NGXF">   128</i>
   <i type="int" name="NGYF">   128</i>
   <i type="int" name="NGZF">   180</i>
   <i type="logical" name="ADDGRID"> F  </i>
  </separator>
  <separator name="ionic" >
   <i type="int" name="NSW">    30</i>
   <i type="int" name="IBRION">     2</i>
   <i type="int" name="ISIF">     3</i>
   <i name="PSTRESS">      0.00000000</i>
   <i name="EDIFFG">     -0.03000000</i>
   <i type="int" name="NFREE">     1</i>
   <i name="POTIM">      0.50000000</i>
   <i name="SMASS">     -3.00000000</i>
   <i name="SCALEE">      1.00000000</i>
  </separator>
  <separator name="ionic md" >
   <i name="TEBEG">      0.00010000</i>
   <i name="TEEND">      0.00010000</i>
   <i type="int" name="NBLOCK">     1</i>
   <i type="int" name="KBLOCK">    30</i>
   <i type="int" name="NPACO">   256</i>
   <i name="APACO">     16.00000000</i>
  </separator>
  <separator name="symmetry" >
   <i type="int" name="ISYM">     2</i>
   <i name="SYMPREC">      0.00001000</i>
  </separator>
  <separator name="dos" >
   <i type="logical" name="LORBIT"> F  </i>
   <v name="RWIGS">     -1.00000000     -1.00000000     -1.00000000     -1.00000000</v>
   <i type="int" name="NEDOS">   301</i>
   <i name="EMIN">     10.00000000</i>
   <i name="EMAX">    -10.00000000</i>
   <i name="EFERMI">      0.00000000</i>
  </separator>
  <separator name="writing" >
   <i type="int" name="NWRITE">     2</i>
   <i type="logical" name="LWAVE"> T  </i>
   <i type="logical" name="LCHARG"> T  </i>
   <i type="logical" name="LPARD"> F  </i>
   <i type="logical" name="LVTOT"> F  </i>
   <i type="logical" name="LVHAR"> F  </i>
   <i type="logical" name="LELF"> F  </i>
   <i type="logical" name="LOPTICS"> F  </i>
   <v name="STM">      0.00000000      0.00000000      0.00000000      0.00000000      0.00000000      0.00000000      0.00000000</v>
  </separator>
  <separator name="performance" >
   <i type="int" name="NPAR">     2</i>
   <i type="int" name="NSIM">     4</i>
   <i type="int" name="NBLK">    -1</i>
   <i type="logical" name="LPLANE"> T  </i>
   <i type="logical" name="LSCALAPACK"> T  </i>
   <i type="logical" name="LSCAAWARE"> F  </i>
   <i type="logical" name="LSCALU"> F  </i>
   <i type="logical" name="LASYNC"> F  </i>
   <i type="logical" name="LORBITALREAL"> F  </i>
  </separator>
  <separator name="miscellaneous" >
   <i type="int" name="IDIOT">     3</i>
   <i type="logical" name="LMUSIC"> F  </i>
   <v name="POMASS">     87.62000000     47.88000000     55.84700000     16.00000000</v>
   <v name="DARWINR">      0.00000000      0.00000000      0.00000000      0.00000000</v>
   <v name="DARWINV">      1.00000000      1.00000000      1.00000000      1.00000000</v>
   <i type="logical" name="LCORR"> T  </i>
  </separator>
  <i type="logical" name="GGA_COMPAT"> T  </i>
  <i type="logical" name="LBERRY"> F  </i>
  <i type="int" name="ICORELEVEL">     0</i>
  <i type="logical" name="LDAU"> T  </i>
  <v type="int" name="LDAUTYPE">     2</v>
  <v type="int" name="LDAUL">     0</v>
  <v name="LDAUU">      0.00000000</v>
  <v name="LDAUJ">      0.00000000</v>
  <i type="int" name="LDAUPRINT">     1</i>
  <i type="int" name="I_CONSTRAINED_M">     0</i>
  <separator name="electronic exchange-correlation" >
   <i type="string" name="GGA">--</i>
   <i type="int" name="VOSKOWN">     0</i>
   <i type="logical" name="LHFCALC"> F  </i>
   <i type="string" name="PRECFOCK"></i>
   <i type="logical" name="LSYMGRAD"> F  </i>
   <i type="logical" name="LHFONE"> F  </i>
   <i type="logical" name="LRHFCALC"> F  </i>
   <i type="logical" name="LTHOMAS"> F  </i>
   <i type="logical" name="LMODELHF"> F  </i>
   <i name="ENCUT4O">     -1.00000000</i>
   <i type="int" name="EXXOEP">     0</i>
   <i type="int" name="FOURORBIT">     0</i>
   <i name="AEXX">      0.00000000</i>
   <i name="HFALPHA">      0.00000000</i>
   <i name="MCALPHA">      0.00000000</i>
   <i name="ALDAX">      1.00000000</i>
   <i name="AGGAX">      1.00000000</i>
   <i name="ALDAC">      1.00000000</i>
   <i name="AGGAC">      1.00000000</i>
   <i type="int" name="NKREDX">     1</i>
   <i type="int" name="NKREDY">     1</i>
   <i type="int" name="NKREDZ">     1</i>
   <i type="logical" name="SHIFTRED"> F  </i>
   <i type="logical" name="ODDONLY"> F  </i>
   <i type="logical" name="EVENONLY"> F  </i>
   <i type="int" name="LMAXFOCK">     0</i>
   <i type="int" name="NMAXFOCKAE">     0</i>
   <i type="logical" name="LFOCKAEDFT"> F  </i>
   <i name="HFSCREEN">      0.00000000</i>
   <i name="HFSCREENC">      0.00000000</i>
   <i type="int" name="NBANDSGWLOW">     0</i>
  </separator>
  <separator name="vdW DFT" >
   <i type="logical" name="LUSE_VDW"> F  </i>
   <i name="Zab_VDW">     -0.84910000</i>
   <i name="PARAM1">      0.12340000</i>
   <i name="PARAM2">      1.00000000</i>
   <i name="PARAM3">      0.00000000</i>
  </separator>
  <separator name="model GW" >
   <i type="int" name="MODEL_GW">     0</i>
   <i name="MODEL_EPS0">      7.70164469</i>
   <i name="MODEL_ALPHA">      1.00000000</i>
  </separator>
  <separator name="linear response parameters" >
   <i type="logical" name="LEPSILON"> F  </i>
   <i type="logical" name="LRPA"> F  </i>
   <i type="logical" name="LNABLA"> F  </i>
   <i type="logical" name="LVEL"> F  </i>
   <i type="int" name="KINTER">     0</i>
   <i name="CSHIFT">      0.10000000</i>
   <i name="OMEGAMAX">     -1.00000000</i>
   <i name="DEG_THRESHOLD">      0.00200000</i>
  </separator>
  <separator name="orbital magnetization" >
   <i type="logical" name="NUCIND"> F  </i>
   <v name="MAGPOS">      0.00000000      0.00000000      0.00000000</v>
   <i type="logical" name="LNICSALL"> T  </i>
   <i type="logical" name="ORBITALMAG"> F  </i>
   <i type="logical" name="LMAGBLOCH"> F  </i>
   <i type="logical" name="LCHIMAG"> F  </i>
   <i type="logical" name="LGAUGE"> T  </i>
   <i type="int" name="MAGATOM">     0</i>
   <v name="MAGDIPOL">      0.00000000      0.00000000      0.00000000</v>
   <v name="AVECCONST">      0.00000000      0.00000000      0.00000000</v>
  </separator>
  <separator name="response functions" >
   <i type="logical" name="LADDER"> F  </i>
   <i type="logical" name="LFXC"> F  </i>
   <i type="logical" name="LHARTREE"> T  </i>
   <i type="int" name="IBSE">     0</i>
   <v type="int" name="KPOINT">    -1     0     0     0</v>
   <i type="logical" name="LTCTE"> F  </i>
   <i type="logical" name="LTETE"> F  </i>
   <i type="logical" name="LTRIPLET"> F  </i>
   <i type="logical" name="LFXCEPS"> F  </i>
   <i type="logical" name="LFXHEG"> F  </i>
   <i type="int" name="NATURALO">     0</i>
   <i type="logical" name="L2ORDER"> F  </i>
   <i type="logical" name="LUSEW"> F  </i>
   <i name="ENCUTGW">     -2.00000000</i>
   <i name="ENCUTGWSOFT">     -2.00000000</i>
   <i name="ENCUTLF">     -1.00000000</i>
   <i type="int" name="LMAXMP2">    -1</i>
   <i name="SCISSOR">      0.00000000</i>
   <i type="int" name="NOMEGA">     0</i>
   <i type="int" name="NOMEGAR">     0</i>
   <i type="int" name="NBANDSGW">    -1</i>
   <i type="int" name="NBANDSO">    -1</i>
   <i type="int" name="NBANDSV">    -1</i>
   <i type="int" name="NELM">    40</i>
   <i type="int" name="NELMHF">     1</i>
   <i type="int" name="DIM">     3</i>
   <i type="int" name="ANTIRES">     0</i>
   <i name="OMEGAMAX">    -30.00000000</i>
   <i name="OMEGAMIN">    -30.00000000</i>
   <i name="OMEGATL">   -200.00000000</i>
   <i type="int" name="OMEGAGRID">     0</i>
   <i name="CSHIFT">     -0.10000000</i>
   <i type="logical" name="SELFENERGY"> F  </i>
   <i type="logical" name="LSPECTRAL"> F  </i>
   <i type="logical" name="LSPECTRALGW"> F  </i>
   <i type="logical" name="LSINGLES"> F  </i>
   <i type="logical" name="LFERMIGW"> F  </i>
   <i type="logical" name="ODDONLYGW"> F  </i>
   <i type="logical" name="EVENONLYGW"> F  </i>
   <i type="int" name="NKREDLFX">     1</i>
   <i type="int" name="NKREDLFY">     1</i>
   <i type="int" name="NKREDLFZ">     1</i>
   <i type="int" name="MAXMEM">  1800</i>
   <i type="int" name="TELESCOPE">     0</i>
   <i type="int" name="TAUPAR">     1</i>
   <i type="int" name="OMEGAPAR">    -1</i>
   <i name="LAMBDA">      1.00000000</i>
  </separator>
  <separator name="External order field" >
   <i name="OFIELD_KAPPA">      0.00000000</i>
   <v name="OFIELD_K">      0.00000000      0.00000000      0.00000000</v>
   <i name="OFIELD_Q6_NEAR">      0.00000000</i>
   <i name="OFIELD_Q6_FAR">      0.00000000</i>
   <i name="OFIELD_A">      0.00000000</i>
  </separator>
 </parameters>
 <atominfo>
  <atoms>     156 </atoms>
  <types>       4 </types>
  <array name="atoms" >
   <dimension dim="1">ion</dimension>
   <field type="string">element</field>
   <field type="int">atomtype</field>
   <set>
    <rc><c>Sr</c><c>   1</c></rc>
    <rc><c>Sr</c><c>   1</c></rc>
    <rc><c>Sr</c><c>   1</c></rc>
    <rc><c>Sr</c><c>   1</c></rc>
    <rc><c>Sr</c><c>   1</c></rc>
    <rc><c>Sr</c><c>   1</c></rc>
    <rc><c>Sr</c><c>   1</c></rc>
    <rc><c>Sr</c><c>   1</c></rc>
    <rc><c>Sr</c><c>   1</c></rc>
    <rc><c>Sr</c><c>   1</c></rc>
    <rc><c>Sr</c><c>   1</c></rc>
    <rc><c>Sr</c><c>   1</c></rc>
    <rc><c>Sr</c><c>   1</c></rc>
    <rc><c>Sr</c><c>   1</c></rc>
    <rc><c>Sr</c><c>   1</c></rc>
    <rc><c>Sr</c><c>   1</c></rc>
    <rc><c>Sr</c><c>   1</c></rc>
    <rc><c>Sr</c><c>   1</c></rc>
    <rc><c>Sr</c><c>   1</c></rc>
    <rc><c>Sr</c><c>   1</c></rc>
    <rc><c>Sr</c><c>   1</c></rc>
    <rc><c>Sr</c><c>   1</c></rc>
    <rc><c>Sr</c><c>   1</c></rc>
    <rc><c>Sr</c><c>   1</c></rc>
    <rc><c>Sr</c><c>   1</c></rc>
    <rc><c>Sr</c><c>   1</c></rc>
    <rc><c>Sr</c><c>   1</c></rc>
    <rc><c>Sr</c><c>   1</c></rc>
    <rc><c>Sr</c><c>   1</c></rc>
    <rc><c>Sr</c><c>   1</c></rc>
    <rc><c>Sr</c><c>   1</c></rc>
    <rc><c>Sr</c><c>   1</c></rc>
    <rc><c>Ti</c><c>   2</c></rc>
    <rc><c>Ti</c><c>   2</c></rc>
    <rc><c>Ti</c><c>   2</c></rc>
    <rc><c>Ti</c><c>   2</c></rc>
    <rc><c>Ti</c><c>   2</c></rc>
    <rc><c>Ti</c><c>   2</c></rc>
    <rc><c>Ti</c><c>   2</c></rc>
    <rc><c>Ti</c><c>   2</c></rc>
    <rc><c>Ti</c><c>   2</c></rc>
    <rc><c>Ti</c><c>   2</c></rc>
    <rc><c>Ti</c><c>   2</c></rc>
    <rc><c>Ti</c><c>   2</c></rc>
    <rc><c>Ti</c><c>   2</c></rc>
    <rc><c>Ti</c><c>   2</c></rc>
    <rc><c>Ti</c><c>   2</c></rc>
    <rc><c>Ti</c><c>   2</c></rc>
    <rc><c>Ti</c><c>   2</c></rc>
    <rc><c>Ti</c><c>   2</c></rc>
    <rc><c>Ti</c><c>   2</c></rc>
    <rc><c>Ti</c><c>   2</c></rc>
    <rc><c>Ti</c><c>   2</c></rc>
    <rc><c>Ti</c><c>   2</c></rc>
    <rc><c>Ti</c><c>   2</c></rc>
    <rc><c>Ti</c><c>   2</c></rc>
    <rc><c>Fe</c><c>   3</c></rc>
    <rc><c>Fe</c><c>   3</c></rc>
    <rc><c>Fe</c><c>   3</c></rc>
    <rc><c>Fe</c><c>   3</c></rc>
    <rc><c>Fe</c><c>   3</c></rc>
    <rc><c>Fe</c><c>   3</c></rc>
    <rc><c>Fe</c><c>   3</c></rc>
    <rc><c>Fe</c><c>   3</c></rc>
    <rc><c>O </c><c>   4</c></rc>
    <rc><c>O </c><c>   4</c></rc>
    <rc><c>O </c><c>   4</c></rc>
    <rc><c>O </c><c>   4</c></rc>
    <rc><c>O </c><c>   4</c></rc>
    <rc><c>O </c><c>   4</c></rc>
    <rc><c>O </c><c>   4</c></rc>
    <rc><c>O </c><c>   4</c></rc>
    <rc><c>O </c><c>   4</c></rc>
    <rc><c>O </c><c>   4</c></rc>
    <rc><c>O </c><c>   4</c></rc>
    <rc><c>O </c><c>   4</c></rc>
    <rc><c>O </c><c>   4</c></rc>
    <rc><c>O </c><c>   4</c></rc>
    <rc><c>O </c><c>   4</c></rc>
    <rc><c>O </c><c>   4</c></rc>
    <rc><c>O </c><c>   4</c></rc>
    <rc><c>O </c><c>   4</c></rc>
    <rc><c>O </c><c>   4</c></rc>
    <rc><c>O </c><c>   4</c></rc>
    <rc><c>O </c><c>   4</c></rc>
    <rc><c>O </c><c>   4</c></rc>
    <rc><c>O </c><c>   4</c></rc>
    <rc><c>O </c><c>   4</c></rc>
    <rc><c>O </c><c>   4</c></rc>
    <rc><c>O </c><c>   4</c></rc>
    <rc><c>O </c><c>   4</c></rc>
    <rc><c>O </c><c>   4</c></rc>
    <rc><c>O </c><c>   4</c></rc>
    <rc><c>O </c><c>   4</c></rc>
    <rc><c>O </c><c>   4</c></rc>
    <rc><c>O </c><c>   4</c></rc>
    <rc><c>O </c><c>   4</c></rc>
    <rc><c>O </c><c>   4</c></rc>
    <rc><c>O </c><c>   4</c></rc>
    <rc><c>O </c><c>   4</c></rc>
    <rc><c>O </c><c>   4</c></rc>
    <rc><c>O </c><c>   4</c></rc>
    <rc><c>O </c><c>   4</c></rc>
    <rc><c>O </c><c>   4</c></rc>
    <rc><c>O </c><c>   4</c></rc>
    <rc><c>O </c><c>   4</c></rc>
    <rc><c>O </c><c>   4</c></rc>
    <rc><c>O </c><c>   4</c></rc>
    <rc><c>O </c><c>   4</c></rc>
    <rc><c>O </c><c>   4</c></rc>
    <rc><c>O </c><c>   4</c></rc>
    <rc><c>O </c><c>   4</c></rc>
    <rc><c>O </c><c>   4</c></rc>
    <rc><c>O </c><c>   4</c></rc>
    <rc><c>O </c><c>   4</c></rc>
    <rc><c>O </c><c>   4</c></rc>
    <rc><c>O </c><c>   4</c></rc>
    <rc><c>O </c><c>   4</c></rc>
    <rc><c>O </c><c>   4</c></rc>
    <rc><c>O </c><c>   4</c></rc>
    <rc><c>O </c><c>   4</c></rc>
    <rc><c>O </c><c>   4</c></rc>
    <rc><c>O </c><c>   4</c></rc>
    <rc><c>O </c><c>   4</c></rc>
    <rc><c>O </c><c>   4</c></rc>
    <rc><c>O </c><c>   4</c></rc>
    <rc><c>O </c><c>   4</c></rc>
    <rc><c>O </c><c>   4</c></rc>
    <rc><c>O </c><c>   4</c></rc>
    <rc><c>O </c><c>   4</c></rc>
    <rc><c>O </c><c>   4</c></rc>
    <rc><c>O </c><c>   4</c></rc>
    <rc><c>O </c><c>   4</c></rc>
    <rc><c>O </c><c>   4</c></rc>
    <rc><c>O </c><c>   4</c></rc>
    <rc><c>O </c><c>   4</c></rc>
    <rc><c>O </c><c>   4</c></rc>
    <rc><c>O </c><c>   4</c></rc>
    <rc><c>O </c><c>   4</c></rc>
    <rc><c>O </c><c>   4</c></rc>
    <rc><c>O </c><c>   4</c></rc>
    <rc><c>O </c><c>   4</c></rc>
    <rc><c>O </c><c>   4</c></rc>
    <rc><c>O </c><c>   4</c></rc>
    <rc><c>O </c><c>   4</c></rc>
    <rc><c>O </c><c>   4</c></rc>
    <rc><c>O </c><c>   4</c></rc>
    <rc><c>O </c><c>   4</c></rc>
    <rc><c>O </c><c>   4</c></rc>
    <rc><c>O </c><c>   4</c></rc>
    <rc><c>O </c><c>   4</c></rc>
    <rc><c>O </c><c>   4</c></rc>
    <rc><c>O </c><c>   4</c></rc>
    <rc><c>O </c><c>   4</c></rc>
    <rc><c>O </c><c>   4</c></rc>
    <rc><c>O </c><c>   4</c></rc>
   </set>
  </array>
  <array name="atomtypes" >
   <dimension dim="1">type</dimension>
   <field type="int">atomspertype</field>
   <field type="string">element</field>
   <field>mass</field>
   <field>valence</field>
   <field type="string">pseudopotential</field>
   <set>
    <rc><c>  32</c><c>Sr</c><c>     87.62000000</c><c>     10.00000000</c><c>  PAW_PBE Sr_sv 07Sep2000               </c></rc>
    <rc><c>  24</c><c>Ti</c><c>     47.88000000</c><c>      4.00000000</c><c>  PAW_PBE Ti 08Apr2002                  </c></rc>
    <rc><c>   8</c><c>Fe</c><c>     55.84700000</c><c>      8.00000000</c><c>  PAW_PBE Fe 06Sep2000                  </c></rc>
    <rc><c>  92</c><c>O </c><c>     16.00000000</c><c>      6.00000000</c><c>  PAW_PBE O 08Apr2002                   </c></rc>
   </set>
  </array>
 </atominfo>
 <structure name="initialpos" >
  <crystal>
   <varray name="basis" >
    <v>      11.23793650      -0.00591012       0.00000000 </v>
    <v>      -0.00587566      11.24362352       0.00000000 </v>
    <v>       0.00000000       0.00000000      15.84762102 </v>
   </varray>
   <i name="volume">   2002.42761913 </i>
   <varray name="rec_basis" >
    <v>       0.08898433       0.00004650       0.00000000 </v>
    <v>       0.00004677       0.08893932       0.00000000 </v>
    <v>       0.00000000       0.00000000       0.06310095 </v>
   </varray>
  </crystal>
  <varray name="positions" >
   <v>       0.99259965       0.24935471       0.12295934 </v>
   <v>       0.00672741       0.24986245       0.62154424 </v>
   <v>       0.99934601       0.74923022       0.12197859 </v>
   <v>       0.99822298       0.75064438       0.62511575 </v>
   <v>       0.50656253       0.25313961       0.12109135 </v>
   <v>       0.49270942       0.25227678       0.62234339 </v>
   <v>       0.49848956       0.74727631       0.12454670 </v>
   <v>       0.49876844       0.74525412       0.62137672 </v>
   <v>       0.99259965       0.24935471       0.37704066 </v>
   <v>       0.00672741       0.24986245       0.87845576 </v>
   <v>       0.99934601       0.74923022       0.37802141 </v>
   <v>       0.99822298       0.75064438       0.87488425 </v>
   <v>       0.50656253       0.25313961       0.37890865 </v>
   <v>       0.49270942       0.25227678       0.87765661 </v>
   <v>       0.49848956       0.74727631       0.37545330 </v>
   <v>       0.49876844       0.74525412       0.87862328 </v>
   <v>       0.24792398       0.99131445       0.11680203 </v>
   <v>       0.25342167       0.00266669       0.62568514 </v>
   <v>       0.25151339       0.51080140       0.12331866 </v>
   <v>       0.25284551       0.49809847       0.62234756 </v>
   <v>       0.75346960       0.00241564       0.12563881 </v>
   <v>       0.74800781       0.99093430       0.61690479 </v>
   <v>       0.74744231       0.49838870       0.12256061 </v>
   <v>       0.74390366       0.51003270       0.62319884 </v>
   <v>       0.24792398       0.99131445       0.38319797 </v>
   <v>       0.25342167       0.00266669       0.87431486 </v>
   <v>       0.25151339       0.51080140       0.37668134 </v>
   <v>       0.25284551       0.49809847       0.87765244 </v>
   <v>       0.75346960       0.00241564       0.37436119 </v>
   <v>       0.74800781       0.99093430       0.88309521 </v>
   <v>       0.74744231       0.49838870       0.37743939 </v>
   <v>       0.74390366       0.51003270       0.87680116 </v>
   <v>       0.99985498       0.00118147       0.99921205 </v>
   <v>       0.99985498       0.00118147       0.50078795 </v>
   <v>       0.74850004       0.24844453       0.99608493 </v>
   <v>       0.49991534       0.00138312       0.00073104 </v>
   <v>       0.74817178       0.74805140       0.00158979 </v>
   <v>       0.49603328       0.50222487       0.75000000 </v>
   <v>       0.99933171       0.49967083       0.50052688 </v>
   <v>       0.25063002       0.74836710       0.99835915 </v>
   <v>       0.24997831       0.24882631       0.49602718 </v>
   <v>       0.74850004       0.24844453       0.50391507 </v>
   <v>       0.49991534       0.00138312       0.49926896 </v>
   <v>       0.99602978       0.50271048       0.25000000 </v>
   <v>       0.24997831       0.24882631       0.00397282 </v>
   <v>       0.24996168       0.74614960       0.75000000 </v>
   <v>       0.24948130       0.75724785       0.25000000 </v>
   <v>       0.75024642       0.74636526       0.25000000 </v>
   <v>       0.00296246       0.50155843       0.75000000 </v>
   <v>       0.74949017       0.75674613       0.75000000 </v>
   <v>       0.99933171       0.49967083       0.99947312 </v>
   <v>       0.75005394       0.25071116       0.25000000 </v>
   <v>       0.50275562       0.50143149       0.25000000 </v>
   <v>       0.24996752       0.25075498       0.75000000 </v>
   <v>       0.25063002       0.74836710       0.50164085 </v>
   <v>       0.74817178       0.74805140       0.49841021 </v>
   <v>       0.49923289       0.49948299       0.49923452 </v>
   <v>       0.49923289       0.49948299       0.00076548 </v>
   <v>       0.75492006       0.27638944       0.75000000 </v>
   <v>       0.51458605       0.98970493       0.25000000 </v>
   <v>       0.01453615       0.98991392       0.75000000 </v>
   <v>       0.49209182       0.98561136       0.75000000 </v>
   <v>       0.99220530       0.98615410       0.25000000 </v>
   <v>       0.25320387       0.27676374       0.25000000 </v>
   <v>       0.00795913       0.01039495       0.12621109 </v>
   <v>       0.98813094       0.00761660       0.62786798 </v>
   <v>       0.99205138       0.50139787       0.12408670 </v>
   <v>       0.00756453       0.49902781       0.62485264 </v>
   <v>       0.48834443       0.00770497       0.12753030 </v>
   <v>       0.50799197       0.01096624       0.62615758 </v>
   <v>       0.50583733       0.49947506       0.12621059 </v>
   <v>       0.49337290       0.50168818       0.62527572 </v>
   <v>       0.00795913       0.01039495       0.37378891 </v>
   <v>       0.98813094       0.00761660       0.87213202 </v>
   <v>       0.99205138       0.50139787       0.37591330 </v>
   <v>       0.00756453       0.49902781       0.87514736 </v>
   <v>       0.48834443       0.00770497       0.37246970 </v>
   <v>       0.50799197       0.01096624       0.87384242 </v>
   <v>       0.50583733       0.49947506       0.37378941 </v>
   <v>       0.49337290       0.50168818       0.87472428 </v>
   <v>       0.24162444       0.21637773       0.36133763 </v>
   <v>       0.25028135       0.25557223       0.87762212 </v>
   <v>       0.24739091       0.75284020       0.37550883 </v>
   <v>       0.24859950       0.74611982       0.87488260 </v>
   <v>       0.75155358       0.25537905       0.37753217 </v>
   <v>       0.74475391       0.21620720       0.86144730 </v>
   <v>       0.75105150       0.74645565       0.37491211 </v>
   <v>       0.74935421       0.75251811       0.87550470 </v>
   <v>       0.24162444       0.21637773       0.13866237 </v>
   <v>       0.25028135       0.25557223       0.62237788 </v>
   <v>       0.24739091       0.75284020       0.12449117 </v>
   <v>       0.24859950       0.74611982       0.62511740 </v>
   <v>       0.75155358       0.25537905       0.12246783 </v>
   <v>       0.74475391       0.21620720       0.63855270 </v>
   <v>       0.75105150       0.74645565       0.12508789 </v>
   <v>       0.74935421       0.75251811       0.62449530 </v>
   <v>       0.61013046       0.14313890       0.25000000 </v>
   <v>       0.86880738       0.11621714       0.25000000 </v>
   <v>       0.13859577       0.39606827       0.25000000 </v>
   <v>       0.40002601       0.35382455       0.25000000 </v>
   <v>       0.64569300       0.39317599       0.25000000 </v>
   <v>       0.89315383       0.35900819       0.25000000 </v>
   <v>       0.10606359       0.64505093       0.25000000 </v>
   <v>       0.35928456       0.61168860       0.25000000 </v>
   <v>       0.60755389       0.64444644       0.25000000 </v>
   <v>       0.85481270       0.60561859       0.25000000 </v>
   <v>       0.14753804       0.90348092       0.25000000 </v>
   <v>       0.38885261       0.86382459       0.25000000 </v>
   <v>       0.64929265       0.89068070       0.25000000 </v>
   <v>       0.89305401       0.85144529       0.25000000 </v>
   <v>       0.13839705       0.11123888       0.50562670 </v>
   <v>       0.38714978       0.13830824       0.50053695 </v>
   <v>       0.63920383       0.11073246       0.49448954 </v>
   <v>       0.88777585       0.13897326       0.49936043 </v>
   <v>       0.11207877       0.35975669       0.49164931 </v>
   <v>       0.35956610       0.38195602       0.48914339 </v>
   <v>       0.61554519       0.35852985       0.50868923 </v>
   <v>       0.86190620       0.38458992       0.51025916 </v>
   <v>       0.13604911       0.61188546       0.49827681 </v>
   <v>       0.38392797       0.63764939       0.49696135 </v>
   <v>       0.63781222       0.61445095       0.50109917 </v>
   <v>       0.88728746       0.63670343       0.50310623 </v>
   <v>       0.11171255       0.86368915       0.50251297 </v>
   <v>       0.36326641       0.88760362       0.50498747 </v>
   <v>       0.61201229       0.86396875       0.49756115 </v>
   <v>       0.86357730       0.88746554       0.49533434 </v>
   <v>       0.10938141       0.14344672       0.75000000 </v>
   <v>       0.36771394       0.11594513       0.75000000 </v>
   <v>       0.14537509       0.39415074       0.75000000 </v>
   <v>       0.39176721       0.35873929       0.75000000 </v>
   <v>       0.63847537       0.39376027       0.75000000 </v>
   <v>       0.90149601       0.35407164       0.75000000 </v>
   <v>       0.10607423       0.64432813       0.75000000 </v>
   <v>       0.35452136       0.60642152       0.75000000 </v>
   <v>       0.60772005       0.64485071       0.75000000 </v>
   <v>       0.85976946       0.60945622       0.75000000 </v>
   <v>       0.14911635       0.89095049       0.75000000 </v>
   <v>       0.39294591       0.85088251       0.75000000 </v>
   <v>       0.64767629       0.90278730       0.75000000 </v>
   <v>       0.88918527       0.86341858       0.75000000 </v>
   <v>       0.13839705       0.11123888       0.99437330 </v>
   <v>       0.38714978       0.13830824       0.99946305 </v>
   <v>       0.63920383       0.11073246       0.00551046 </v>
   <v>       0.88777585       0.13897326       0.00063957 </v>
   <v>       0.11207877       0.35975669       0.00835069 </v>
   <v>       0.35956610       0.38195602       0.01085661 </v>
   <v>       0.61554519       0.35852985       0.99131077 </v>
   <v>       0.86190620       0.38458992       0.98974084 </v>
   <v>       0.13604911       0.61188546       0.00172319 </v>
   <v>       0.38392797       0.63764939       0.00303865 </v>
   <v>       0.63781222       0.61445095       0.99890083 </v>
   <v>       0.88728746       0.63670343       0.99689377 </v>
   <v>       0.11171255       0.86368915       0.99748703 </v>
   <v>       0.36326641       0.88760362       0.99501253 </v>
   <v>       0.61201229       0.86396875       0.00243885 </v>
   <v>       0.86357730       0.88746554       0.00466566 </v>
  </varray>
 </structure>
 <calculation>
  <scstep>
   <time name="dav">  148.85  148.91</time>
   <time name="total">  151.18  151.32</time>
   <energy>
    <i name="alphaZ">   5635.83733566 </i>
    <i name="ewald"> -61609.71697666 </i>
    <i name="hartreedc"> -15938.23524038 </i>
    <i name="XCdc">   2963.89176766 </i>
    <i name="pawpsdc"> 113017.32919182 </i>
    <i name="pawaedc">-111917.53662072 </i>
    <i name="eentropy">     -0.00000000 </i>
    <i name="bandstr">  -7056.53664681 </i>
    <i name="atom">  73783.44779670 </i>
    <i name="e_fr_energy">  -1121.51939273 </i>
    <i name="e_wo_entrp">  -1121.51939273 </i>
    <i name="e_0_energy">  -1121.51939273 </i>
   </energy>
  </scstep>
  <scstep>
   <time name="diag">   16.56   16.58</time>
   <time name="diis">   16.26   16.27</time>
   <time name="orth">    9.42    9.43</time>
   <time name="total">   44.59   44.65</time>
   <energy>
    <i name="e_fr_energy">  -1121.51938780 </i>
    <i name="e_wo_entrp">  -1121.51938780 </i>
    <i name="e_0_energy">  -1121.51938780 </i>
   </energy>
  </scstep>
  <scstep>
   <time name="diag">   16.60   16.60</time>
   <time name="diis">   15.27   15.29</time>
   <time name="orth">    9.44    9.45</time>
   <time name="total">   43.66   43.77</time>
   <energy>
    <i name="e_fr_energy">  -1121.51938727 </i>
    <i name="e_wo_entrp">  -1121.51938727 </i>
    <i name="e_0_energy">  -1121.51938727 </i>
   </energy>
  </scstep>
  <scstep>
   <time name="diag">   16.59   16.59</time>
   <time name="diis">   13.81   13.82</time>
   <time name="orth">    9.43    9.44</time>
   <time name="total">   42.17   42.20</time>
   <energy>
    <i name="e_fr_energy">  -1121.51938728 </i>
    <i name="e_wo_entrp">  -1121.51938728 </i>
    <i name="e_0_energy">  -1121.51938728 </i>
   </energy>
  </scstep>
  <scstep>
   <time name="diag">   16.58   16.59</time>
   <time name="diis">   13.69   13.69</time>
   <time name="orth">    9.42    9.42</time>
   <time name="total">   42.04   42.08</time>
   <energy>
    <i name="e_fr_energy">  -1121.51938772 </i>
    <i name="e_wo_entrp">  -1121.51938772 </i>
    <i name="e_0_energy">  -1121.51938772 </i>
   </energy>
  </scstep>
  <scstep>
   <time name="diag">   16.60   16.62</time>
   <time name="diis">   12.54   12.55</time>
   <time name="orth">    9.44    9.44</time>
   <time name="total">   40.93   40.99</time>
   <energy>
    <i name="e_fr_energy">  -1121.51938774 </i>
    <i name="e_wo_entrp">  -1121.51938774 </i>
    <i name="e_0_energy">  -1121.51938774 </i>
   </energy>
  </scstep>
  <scstep>
   <time name="diag">   16.59   16.60</time>
   <time name="diis">   11.89   11.89</time>
   <time name="orth">    9.45    9.45</time>
   <time name="total">   40.27   40.35</time>
   <energy>
    <i name="e_fr_energy">  -1121.51938773 </i>
    <i name="e_wo_entrp">  -1121.51938773 </i>
    <i name="e_0_energy">  -1121.51938773 </i>
   </energy>
  </scstep>
  <scstep>
   <time name="diag">   16.60   16.60</time>
   <time name="diis">   11.58   11.58</time>
   <time name="orth">    9.45    9.45</time>
   <time name="total">   38.20   38.36</time>
   <energy>
    <i name="alphaZ">   5635.83733566 </i>
    <i name="ewald"> -61609.71697666 </i>
    <i name="hartreedc"> -15938.22018165 </i>
    <i name="XCdc">   2963.88755487 </i>
    <i name="pawpsdc"> 113014.28003502 </i>
    <i name="pawaedc">-111914.49839882 </i>
    <i name="eentropy">     -0.00000000 </i>
    <i name="bandstr">  -7056.53655289 </i>
    <i name="atom">  73783.44779670 </i>
    <i name="e_fr_energy">  -1121.51938777 </i>
    <i name="e_wo_entrp">  -1121.51938777 </i>
    <i name="e_0_energy">  -1121.51938777 </i>
   </energy>
  </scstep>
  <structure>
   <crystal>
    <varray name="basis" >
     <v>      11.23793650      -0.00591012       0.00000000 </v>
     <v>      -0.00587566      11.24362352       0.00000000 </v>
     <v>       0.00000000       0.00000000      15.84762102 </v>
    </varray>
    <i name="volume">   2002.42761913 </i>
    <varray name="rec_basis" >
     <v>       0.08898433       0.00004650       0.00000000 </v>
     <v>       0.00004677       0.08893932       0.00000000 </v>
     <v>       0.00000000       0.00000000       0.06310095 </v>
    </varray>
   </crystal>
   <varray name="positions" >
    <v>       0.99259965       0.24935471       0.12295934 </v>
    <v>       0.00672741       0.24986245       0.62154424 </v>
    <v>       0.99934601       0.74923022       0.12197859 </v>
    <v>       0.99822298       0.75064438       0.62511575 </v>
    <v>       0.50656253       0.25313961       0.12109135 </v>
    <v>       0.49270942       0.25227678       0.62234339 </v>
    <v>       0.49848956       0.74727631       0.12454670 </v>
    <v>       0.49876844       0.74525412       0.62137672 </v>
    <v>       0.99259965       0.24935471       0.37704066 </v>
    <v>       0.00672741       0.24986245       0.87845576 </v>
    <v>       0.99934601       0.74923022       0.37802141 </v>
    <v>       0.99822298       0.75064438       0.87488425 </v>
    <v>       0.50656253       0.25313961       0.37890865 </v>
    <v>       0.49270942       0.25227678       0.87765661 </v>
    <v>       0.49848956       0.74727631       0.37545330 </v>
    <v>       0.49876844       0.74525412       0.87862328 </v>
    <v>       0.24792398       0.99131445       0.11680203 </v>
    <v>       0.25342167       0.00266669       0.62568514 </v>
    <v>       0.25151339       0.51080140       0.12331866 </v>
    <v>       0.25284551       0.49809847       0.62234756 </v>
    <v>       0.75346960       0.00241564       0.12563881 </v>
    <v>       0.74800781       0.99093430       0.61690479 </v>
    <v>       0.74744231       0.49838870       0.12256061 </v>
    <v>       0.74390366       0.51003270       0.62319884 </v>
    <v>       0.24792398       0.99131445       0.38319797 </v>
    <v>       0.25342167       0.00266669       0.87431486 </v>
    <v>       0.25151339       0.51080140       0.37668134 </v>
    <v>       0.25284551       0.49809847       0.87765244 </v>
    <v>       0.75346960       0.00241564       0.37436119 </v>
    <v>       0.74800781       0.99093430       0.88309521 </v>
    <v>       0.74744231       0.49838870       0.37743939 </v>
    <v>       0.74390366       0.51003270       0.87680116 </v>
    <v>       0.99985498       0.00118147       0.99921205 </v>
    <v>       0.99985498       0.00118147       0.50078795 </v>
    <v>       0.74850004       0.24844453       0.99608493 </v>
    <v>       0.49991534       0.00138312       0.00073104 </v>
    <v>       0.74817178       0.74805140       0.00158979 </v>
    <v>       0.49603328       0.50222487       0.75000000 </v>
    <v>       0.99933171       0.49967083       0.50052688 </v>
    <v>       0.25063002       0.74836710       0.99835915 </v>
    <v>       0.24997831       0.24882631       0.49602718 </v>
    <v>       0.74850004       0.24844453       0.50391507 </v>
    <v>       0.49991534       0.00138312       0.49926896 </v>
    <v>       0.99602978       0.50271048       0.25000000 </v>
    <v>       0.24997831       0.24882631       0.00397282 </v>
    <v>       0.24996168       0.74614960       0.75000000 </v>
    <v>       0.24948130       0.75724785       0.25000000 </v>
    <v>       0.75024642       0.74636526       0.25000000 </v>
    <v>       0.00296246       0.50155843       0.75000000 </v>
    <v>       0.74949017       0.75674613       0.75000000 </v>
    <v>       0.99933171       0.49967083       0.99947312 </v>
    <v>       0.75005394       0.25071116       0.25000000 </v>
    <v>       0.50275562       0.50143149       0.25000000 </v>
    <v>       0.24996752       0.25075498       0.75000000 </v>
    <v>       0.25063002       0.74836710       0.50164085 </v>
    <v>       0.74817178       0.74805140       0.49841021 </v>
    <v>       0.49923289       0.49948299       0.49923452 </v>
    <v>       0.49923289       0.49948299       0.00076548 </v>
    <v>       0.75492006       0.27638944       0.75000000 </v>
    <v>       0.51458605       0.98970493       0.25000000 </v>
    <v>       0.01453615       0.98991392       0.75000000 </v>
    <v>       0.49209182       0.98561136       0.75000000 </v>
    <v>       0.99220530       0.98615410       0.25000000 </v>
    <v>       0.25320387       0.27676374       0.25000000 </v>
    <v>       0.00795913       0.01039495       0.12621109 </v>
    <v>       0.98813094       0.00761660       0.62786798 </v>
    <v>       0.99205138       0.50139787       0.12408670 </v>
    <v>       0.00756453       0.49902781       0.62485264 </v>
    <v>       0.48834443       0.00770497       0.12753030 </v>
    <v>       0.50799197       0.01096624       0.62615758 </v>
    <v>       0.50583733       0.49947506       0.12621059 </v>
    <v>       0.49337290       0.50168818       0.62527572 </v>
    <v>       0.00795913       0.01039495       0.37378891 </v>
    <v>       0.98813094       0.00761660       0.87213202 </v>
    <v>       0.99205138       0.50139787       0.37591330 </v>
    <v>       0.00756453       0.49902781       0.87514736 </v>
    <v>       0.48834443       0.00770497       0.37246970 </v>
    <v>       0.50799197       0.01096624       0.87384242 </v>
    <v>       0.50583733       0.49947506       0.37378941 </v>
    <v>       0.49337290       0.50168818       0.87472428 </v>
    <v>       0.24162444       0.21637773       0.36133763 </v>
    <v>       0.25028135       0.25557223       0.87762212 </v>
    <v>       0.24739091       0.75284020       0.37550883 </v>
    <v>       0.24859950       0.74611982       0.87488260 </v>
    <v>       0.75155358       0.25537905       0.37753217 </v>
    <v>       0.74475391       0.21620720       0.86144730 </v>
    <v>       0.75105150       0.74645565       0.37491211 </v>
    <v>       0.74935421       0.75251811       0.87550470 </v>
    <v>       0.24162444       0.21637773       0.13866237 </v>
    <v>       0.25028135       0.25557223       0.62237788 </v>
    <v>       0.24739091       0.75284020       0.12449117 </v>
    <v>       0.24859950       0.74611982       0.62511740 </v>
    <v>       0.75155358       0.25537905       0.12246783 </v>
    <v>       0.74475391       0.21620720       0.63855270 </v>
    <v>       0.75105150       0.74645565       0.12508789 </v>
    <v>       0.74935421       0.75251811       0.62449530 </v>
    <v>       0.61013046       0.14313890       0.25000000 </v>
    <v>       0.86880738       0.11621714       0.25000000 </v>
    <v>       0.13859577       0.39606827       0.25000000 </v>
    <v>       0.40002601       0.35382455       0.25000000 </v>
    <v>       0.64569300       0.39317599       0.25000000 </v>
    <v>       0.89315383       0.35900819       0.25000000 </v>
    <v>       0.10606359       0.64505093       0.25000000 </v>
    <v>       0.35928456       0.61168860       0.25000000 </v>
    <v>       0.60755389       0.64444644       0.25000000 </v>
    <v>       0.85481270       0.60561859       0.25000000 </v>
    <v>       0.14753804       0.90348092       0.25000000 </v>
    <v>       0.38885261       0.86382459       0.25000000 </v>
    <v>       0.64929265       0.89068070       0.25000000 </v>
    <v>       0.89305401       0.85144529       0.25000000 </v>
    <v>       0.13839705       0.11123888       0.50562670 </v>
    <v>       0.38714978       0.13830824       0.50053695 </v>
    <v>       0.63920383       0.11073246       0.49448954 </v>
    <v>       0.88777585       0.13897326       0.49936043 </v>
    <v>       0.11207877       0.35975669       0.49164931 </v>
    <v>       0.35956610       0.38195602       0.48914339 </v>
    <v>       0.61554519       0.35852985       0.50868923 </v>
    <v>       0.86190620       0.38458992       0.51025916 </v>
    <v>       0.13604911       0.61188546       0.49827681 </v>
    <v>       0.38392797       0.63764939       0.49696135 </v>
    <v>       0.63781222       0.61445095       0.50109917 </v>
    <v>       0.88728746       0.63670343       0.50310623 </v>
    <v>       0.11171255       0.86368915       0.50251297 </v>
    <v>       0.36326641       0.88760362       0.50498747 </v>
    <v>       0.61201229       0.86396875       0.49756115 </v>
    <v>       0.86357730       0.88746554       0.49533434 </v>
    <v>       0.10938141       0.14344672       0.75000000 </v>
    <v>       0.36771394       0.11594513       0.75000000 </v>
    <v>       0.14537509       0.39415074       0.75000000 </v>
    <v>       0.39176721       0.35873929       0.75000000 </v>
    <v>       0.63847537       0.39376027       0.75000000 </v>
    <v>       0.90149601       0.35407164       0.75000000 </v>
    <v>       0.10607423       0.64432813       0.75000000 </v>
    <v>       0.35452136       0.60642152       0.75000000 </v>
    <v>       0.60772005       0.64485071       0.75000000 </v>
    <v>       0.85976946       0.60945622       0.75000000 </v>
    <v>       0.14911635       0.89095049       0.75000000 </v>
    <v>       0.39294591       0.85088251       0.75000000 </v>
    <v>       0.64767629       0.90278730       0.75000000 </v>
    <v>       0.88918527       0.86341858       0.75000000 </v>
    <v>       0.13839705       0.11123888       0.99437330 </v>
    <v>       0.38714978       0.13830824       0.99946305 </v>
    <v>       0.63920383       0.11073246       0.00551046 </v>
    <v>       0.88777585       0.13897326       0.00063957 </v>
    <v>       0.11207877       0.35975669       0.00835069 </v>
    <v>       0.35956610       0.38195602       0.01085661 </v>
    <v>       0.61554519       0.35852985       0.99131077 </v>
    <v>       0.86190620       0.38458992       0.98974084 </v>
    <v>       0.13604911       0.61188546       0.00172319 </v>
    <v>       0.38392797       0.63764939       0.00303865 </v>
    <v>       0.63781222       0.61445095       0.99890083 </v>
    <v>       0.88728746       0.63670343       0.99689377 </v>
    <v>       0.11171255       0.86368915       0.99748703 </v>
    <v>       0.36326641       0.88760362       0.99501253 </v>
    <v>       0.61201229       0.86396875       0.00243885 </v>
    <v>       0.86357730       0.88746554       0.00466566 </v>
   </varray>
  </structure>
  <varray name="forces" >
   <v>      -0.00664535      -0.00301893      -0.01794036 </v>
   <v>       0.00584045      -0.01259688      -0.01455590 </v>
   <v>      -0.00380810       0.00003922      -0.01804256 </v>
   <v>       0.00429012       0.00165081       0.00020575 </v>
   <v>       0.00703805      -0.01120673       0.00064096 </v>
   <v>      -0.00786487       0.00666922      -0.00566028 </v>
   <v>       0.00601384      -0.00001240       0.00541037 </v>
   <v>       0.00350969      -0.00280130      -0.00914439 </v>
   <v>      -0.00664535      -0.00301893       0.01794036 </v>
   <v>       0.00584045      -0.01259688       0.01455590 </v>
   <v>      -0.00380810       0.00003922       0.01804256 </v>
   <v>       0.00429012       0.00165081      -0.00020575 </v>
   <v>       0.00703805      -0.01120673      -0.00064096 </v>
   <v>      -0.00786487       0.00666922       0.00566028 </v>
   <v>       0.00601384      -0.00001240      -0.00541037 </v>
   <v>       0.00350969      -0.00280130       0.00914439 </v>
   <v>       0.00378057      -0.00944246      -0.01179455 </v>
   <v>      -0.00271670      -0.00103644      -0.01542989 </v>
   <v>       0.00204836       0.00983529      -0.00290366 </v>
   <v>      -0.00650333      -0.00234746      -0.00009592 </v>
   <v>       0.00119896      -0.00118605      -0.01177255 </v>
   <v>       0.00990174      -0.00950390      -0.01347091 </v>
   <v>      -0.00133409       0.00096993       0.00242811 </v>
   <v>      -0.00013075       0.01384466       0.00125230 </v>
   <v>       0.00378057      -0.00944246       0.01179455 </v>
   <v>      -0.00271670      -0.00103644       0.01542989 </v>
   <v>       0.00204836       0.00983529       0.00290366 </v>
   <v>      -0.00650333      -0.00234746       0.00009592 </v>
   <v>       0.00119896      -0.00118605       0.01177255 </v>
   <v>       0.00990174      -0.00950390       0.01347091 </v>
   <v>      -0.00133409       0.00096993      -0.00242811 </v>
   <v>      -0.00013075       0.01384466      -0.00125230 </v>
   <v>      -0.00054815       0.00230564      -0.00485895 </v>
   <v>      -0.00054815       0.00230564       0.00485895 </v>
   <v>       0.00125429      -0.01415619      -0.00192038 </v>
   <v>       0.00595777      -0.01548556       0.00537952 </v>
   <v>       0.00025460      -0.00295353       0.02966373 </v>
   <v>       0.00779384       0.01213146       0.00000000 </v>
   <v>      -0.00621871       0.00752893       0.01128203 </v>
   <v>       0.00329693       0.00826204      -0.00659117 </v>
   <v>      -0.00657861      -0.00440066      -0.00312398 </v>
   <v>       0.00125429      -0.01415619       0.00192038 </v>
   <v>       0.00595777      -0.01548556      -0.00537952 </v>
   <v>      -0.02863985       0.02248124       0.00000000 </v>
   <v>      -0.00657861      -0.00440066       0.00312398 </v>
   <v>      -0.01536029       0.00527090       0.00000000 </v>
   <v>       0.01379186       0.00932034       0.00000000 </v>
   <v>      -0.01413723      -0.01394981       0.00000000 </v>
   <v>      -0.00389136       0.02645249       0.00000000 </v>
   <v>      -0.01206991      -0.00514151       0.00000000 </v>
   <v>      -0.00621871       0.00752893      -0.01128203 </v>
   <v>      -0.01714915       0.01065800       0.00000000 </v>
   <v>       0.00074466       0.01259333       0.00000000 </v>
   <v>       0.02271595       0.01891187       0.00000000 </v>
   <v>       0.00329693       0.00826204       0.00659117 </v>
   <v>       0.00025460      -0.00295353      -0.02966373 </v>
   <v>      -0.00009353       0.00729192      -0.00243308 </v>
   <v>      -0.00009353       0.00729192       0.00243308 </v>
   <v>      -0.00054466       0.02487994       0.00000000 </v>
   <v>       0.00638727      -0.02392498       0.00000000 </v>
   <v>      -0.00027700      -0.00782621       0.00000000 </v>
   <v>       0.00123646      -0.02468394       0.00000000 </v>
   <v>       0.00121560      -0.02928173       0.00000000 </v>
   <v>       0.04420595       0.02136624       0.00000000 </v>
   <v>      -0.00942687      -0.00258069       0.01001653 </v>
   <v>      -0.00674158       0.00752139       0.01399060 </v>
   <v>       0.01178362      -0.00715442       0.01493156 </v>
   <v>      -0.00954835       0.00406119       0.00319187 </v>
   <v>      -0.00327669       0.01173277       0.00988088 </v>
   <v>      -0.00314928       0.00896194       0.00492121 </v>
   <v>      -0.01110496       0.00014278      -0.00623497 </v>
   <v>       0.00843953      -0.01077438       0.00635192 </v>
   <v>      -0.00942687      -0.00258069      -0.01001653 </v>
   <v>      -0.00674158       0.00752139      -0.01399060 </v>
   <v>       0.01178362      -0.00715442      -0.01493156 </v>
   <v>      -0.00954835       0.00406119      -0.00319187 </v>
   <v>      -0.00327669       0.01173277      -0.00988088 </v>
   <v>      -0.00314928       0.00896194      -0.00492121 </v>
   <v>      -0.01110496       0.00014278       0.00623497 </v>
   <v>       0.00843953      -0.01077438      -0.00635192 </v>
   <v>      -0.01021271      -0.00959392       0.00050603 </v>
   <v>       0.00167634      -0.01501328      -0.00466140 </v>
   <v>      -0.01082507       0.00521980       0.00177267 </v>
   <v>       0.00915645      -0.00123798      -0.00540223 </v>
   <v>       0.00766691      -0.01408075      -0.00566932 </v>
   <v>      -0.00593548      -0.00492389      -0.00137361 </v>
   <v>       0.00829205       0.00293685      -0.00426854 </v>
   <v>      -0.00791171       0.00286566      -0.00068050 </v>
   <v>      -0.01021271      -0.00959392      -0.00050603 </v>
   <v>       0.00167634      -0.01501328       0.00466140 </v>
   <v>      -0.01082507       0.00521980      -0.00177267 </v>
   <v>       0.00915645      -0.00123798       0.00540223 </v>
   <v>       0.00766691      -0.01408075       0.00566932 </v>
   <v>      -0.00593548      -0.00492389       0.00137361 </v>
   <v>       0.00829205       0.00293685       0.00426854 </v>
   <v>      -0.00791171       0.00286566       0.00068050 </v>
   <v>       0.01767842      -0.00310734       0.00000000 </v>
   <v>       0.00332820       0.00129386       0.00000000 </v>
   <v>       0.01210125       0.01062888       0.00000000 </v>
   <v>      -0.03473271      -0.02930146       0.00000000 </v>
   <v>       0.00393696      -0.03266902       0.00000000 </v>
   <v>       0.00979934       0.00102764       0.00000000 </v>
   <v>       0.00107024      -0.01856106       0.00000000 </v>
   <v>      -0.00265663      -0.01662927       0.00000000 </v>
   <v>      -0.01343088      -0.01143957       0.00000000 </v>
   <v>       0.01670634      -0.02406966       0.00000000 </v>
   <v>       0.00979654       0.01739999       0.00000000 </v>
   <v>       0.01086470       0.01317103       0.00000000 </v>
   <v>       0.00225965       0.02902076       0.00000000 </v>
   <v>       0.01435617       0.01465206       0.00000000 </v>
   <v>       0.00848171       0.01183925      -0.00524275 </v>
   <v>      -0.01938759       0.00635012      -0.00438596 </v>
   <v>      -0.01133863       0.01918695       0.00499365 </v>
   <v>      -0.01304541       0.00213649       0.00580406 </v>
   <v>       0.01642535       0.00618213      -0.00032428 </v>
   <v>      -0.00117857      -0.01737261       0.00486973 </v>
   <v>       0.01158207       0.00016560       0.00091560 </v>
   <v>      -0.00286278      -0.00700010       0.00094425 </v>
   <v>      -0.00500976       0.00029478      -0.00666796 </v>
   <v>      -0.01976596       0.01028756       0.00637181 </v>
   <v>       0.00093858       0.01446578       0.00436013 </v>
   <v>      -0.01035755      -0.01449988       0.00885779 </v>
   <v>       0.00485820       0.01832441       0.01148722 </v>
   <v>      -0.00637170      -0.00218031      -0.00725951 </v>
   <v>       0.00456441       0.01699310      -0.01043204 </v>
   <v>       0.00194365       0.00845459       0.00884371 </v>
   <v>       0.01328264      -0.01041797       0.00000000 </v>
   <v>      -0.00446530      -0.00302451       0.00000000 </v>
   <v>       0.01097784      -0.02732952       0.00000000 </v>
   <v>      -0.00286744      -0.00012318       0.00000000 </v>
   <v>       0.02350353      -0.00906436       0.00000000 </v>
   <v>      -0.00794663      -0.00830611       0.00000000 </v>
   <v>      -0.00447056       0.00212023       0.00000000 </v>
   <v>      -0.00039849      -0.01326805       0.00000000 </v>
   <v>       0.00129999      -0.00441735       0.00000000 </v>
   <v>       0.00517955      -0.01847564       0.00000000 </v>
   <v>       0.00835520       0.01156458       0.00000000 </v>
   <v>      -0.00586796       0.00137141       0.00000000 </v>
   <v>       0.00987123       0.01617606       0.00000000 </v>
   <v>       0.01584386       0.01259972       0.00000000 </v>
   <v>       0.00848171       0.01183925       0.00524275 </v>
   <v>      -0.01938759       0.00635012       0.00438596 </v>
   <v>      -0.01133863       0.01918695      -0.00499365 </v>
   <v>      -0.01304541       0.00213649      -0.00580406 </v>
   <v>       0.01642535       0.00618213       0.00032428 </v>
   <v>      -0.00117857      -0.01737261      -0.00486973 </v>
   <v>       0.01158207       0.00016560      -0.00091560 </v>
   <v>      -0.00286278      -0.00700010      -0.00094425 </v>
   <v>      -0.00500976       0.00029478       0.00666796 </v>
   <v>      -0.01976596       0.01028756      -0.00637181 </v>
   <v>       0.00093858       0.01446578      -0.00436013 </v>
   <v>      -0.01035755      -0.01449988      -0.00885779 </v>
   <v>       0.00485820       0.01832441      -0.01148722 </v>
   <v>      -0.00637170      -0.00218031       0.00725951 </v>
   <v>       0.00456441       0.01699310       0.01043204 </v>
   <v>       0.00194365       0.00845459      -0.00884371 </v>
  </varray>
  <varray name="stress" >
   <v>      -0.26723158       0.05605121       0.00000000 </v>
   <v>       0.05605117      -0.16125470       0.00000000 </v>
   <v>       0.00000000       0.00000000      -0.25948435 </v>
  </varray>
  <energy>
   <i name="e_fr_energy">  -1121.51938777 </i>
   <i name="e_wo_entrp">  -1121.51938777 </i>
   <i name="e_0_energy">     -0.00000000 </i>
  </energy>
  <time name="totalsc">  534.73  537.17</time>
 </calculation>
 <calculation>
  <scstep>
   <time name="dav">  147.42  147.43</time>
   <time name="total">  149.72  149.80</time>
   <energy>
    <i name="alphaZ">   5637.33619126 </i>
    <i name="ewald"> -61614.06282052 </i>
    <i name="hartreedc"> -15940.57704707 </i>
    <i name="XCdc">   2964.24516286 </i>
    <i name="pawpsdc"> 113014.28959838 </i>
    <i name="pawaedc">-111914.50796857 </i>
    <i name="eentropy">     -0.00000000 </i>
    <i name="bandstr">  -7051.69019833 </i>
    <i name="atom">  73783.44779670 </i>
    <i name="e_fr_energy">  -1121.51928528 </i>
    <i name="e_wo_entrp">  -1121.51928528 </i>
    <i name="e_0_energy">  -1121.51928528 </i>
   </energy>
  </scstep>
  <scstep>
   <time name="diag">   16.54   16.55</time>
   <time name="diis">   25.77   25.81</time>
   <time name="orth">    9.47    9.47</time>
   <time name="total">   54.10   54.15</time>
   <energy>
    <i name="e_fr_energy">  -1121.52037616 </i>
    <i name="e_wo_entrp">  -1121.52037616 </i>
    <i name="e_0_energy">  -1121.52037616 </i>
   </energy>
  </scstep>
  <scstep>
   <time name="diag">   16.61   16.61</time>
   <time name="diis">   24.49   24.50</time>
   <time name="orth">    9.46    9.46</time>
   <time name="total">   52.88   52.96</time>
   <energy>
    <i name="e_fr_energy">  -1121.52036163 </i>
    <i name="e_wo_entrp">  -1121.52036163 </i>
    <i name="e_0_energy">  -1121.52036163 </i>
   </energy>
  </scstep>
  <scstep>
   <time name="diag">   16.58   16.58</time>
   <time name="diis">   18.10   18.11</time>
   <time name="orth">    9.48    9.48</time>
   <time name="total">   46.47   46.53</time>
   <energy>
    <i name="e_fr_energy">  -1121.52026509 </i>
    <i name="e_wo_entrp">  -1121.52026509 </i>
    <i name="e_0_energy">  -1121.52026509 </i>
   </energy>
  </scstep>
  <scstep>
   <time name="diag">   16.59   16.60</time>
   <time name="diis">   16.79   16.81</time>
   <time name="orth">    9.48    9.49</time>
   <time name="total">   45.17   45.30</time>
   <energy>
    <i name="e_fr_energy">  -1121.52024772 </i>
    <i name="e_wo_entrp">  -1121.52024772 </i>
    <i name="e_0_energy">  -1121.52024772 </i>
   </energy>
  </scstep>
  <scstep>
   <time name="diag">   16.58   16.59</time>
   <time name="diis">   15.85   15.85</time>
   <time name="orth">    9.48    9.48</time>
   <time name="total">   44.23   44.33</time>
   <energy>
    <i name="e_fr_energy">  -1121.52025175 </i>
    <i name="e_wo_entrp">  -1121.52025175 </i>
    <i name="e_0_energy">  -1121.52025175 </i>
   </energy>
  </scstep>
  <scstep>
   <time name="diag">   16.60   16.60</time>
   <time name="diis">   15.68   15.69</time>
   <time name="orth">    9.46    9.46</time>
   <time name="total">   44.08   44.10</time>
   <energy>
    <i name="e_fr_energy">  -1121.52025665 </i>
    <i name="e_wo_entrp">  -1121.52025665 </i>
    <i name="e_0_energy">  -1121.52025665 </i>
   </energy>
  </scstep>
  <scstep>
   <time name="diag">   16.55   16.56</time>
   <time name="diis">   15.38   15.40</time>
   <time name="orth">    9.44    9.45</time>
   <time name="total">   41.95   42.03</time>
   <energy>
    <i name="alphaZ">   5637.33619126 </i>
    <i name="ewald"> -61614.06282052 </i>
    <i name="hartreedc"> -15936.78249403 </i>
    <i name="XCdc">   2963.99375801 </i>
    <i name="pawpsdc"> 113072.73385653 </i>
    <i name="pawaedc">-111973.02423875 </i>
    <i name="eentropy">     -0.00000000 </i>
    <i name="bandstr">  -7055.16231028 </i>
    <i name="atom">  73783.44779670 </i>
    <i name="e_fr_energy">  -1121.52026108 </i>
    <i name="e_wo_entrp">  -1121.52026108 </i>
    <i name="e_0_energy">  -1121.52026108 </i>
   </energy>
  </scstep>
  <structure>
   <crystal>
    <varray name="basis" >
     <v>      11.23677565      -0.00566629       0.00000000 </v>
     <v>      -0.00563147      11.24292263       0.00000000 </v>
     <v>       0.00000000       0.00000000      15.84603164 </v>
    </varray>
    <i name="volume">   2001.89521344 </i>
    <varray name="rec_basis" >
     <v>       0.08899352       0.00004458       0.00000000 </v>
     <v>       0.00004485       0.08894487       0.00000000 </v>
     <v>       0.00000000       0.00000000       0.06310728 </v>
    </varray>
   </crystal>
   <varray name="positions" >
    <v>       0.99257111       0.24934174       0.12290472 </v>
    <v>       0.00675245       0.24980841       0.62149993 </v>
    <v>       0.99932966       0.74923038       0.12192367 </v>
    <v>       0.99824140       0.75065148       0.62511637 </v>
    <v>       0.50659272       0.25309154       0.12109330 </v>
    <v>       0.49267567       0.25230537       0.62232616 </v>
    <v>       0.49851537       0.74727627       0.12456317 </v>
    <v>       0.49878350       0.74524211       0.62134889 </v>
    <v>       0.99257111       0.24934174       0.37709528 </v>
    <v>       0.00675245       0.24980841       0.87850007 </v>
    <v>       0.99932966       0.74923038       0.37807633 </v>
    <v>       0.99824140       0.75065148       0.87488363 </v>
    <v>       0.50659272       0.25309154       0.37890670 </v>
    <v>       0.49267567       0.25230537       0.87767384 </v>
    <v>       0.49851537       0.74727627       0.37543683 </v>
    <v>       0.49878350       0.74524211       0.87865111 </v>
    <v>       0.24794019       0.99127395       0.11676613 </v>
    <v>       0.25341001       0.00266224       0.62563817 </v>
    <v>       0.25152220       0.51084361       0.12330982 </v>
    <v>       0.25281758       0.49808838       0.62234727 </v>
    <v>       0.75347475       0.00241056       0.12560297 </v>
    <v>       0.74805029       0.99089355       0.61686378 </v>
    <v>       0.74743659       0.49839286       0.12256800 </v>
    <v>       0.74390313       0.51009210       0.62320265 </v>
    <v>       0.24794019       0.99127395       0.38323387 </v>
    <v>       0.25341001       0.00266224       0.87436183 </v>
    <v>       0.25152220       0.51084361       0.37669018 </v>
    <v>       0.25281758       0.49808838       0.87765273 </v>
    <v>       0.75347475       0.00241056       0.37439703 </v>
    <v>       0.74805029       0.99089355       0.88313622 </v>
    <v>       0.74743659       0.49839286       0.37743200 </v>
    <v>       0.74390313       0.51009210       0.87679735 </v>
    <v>       0.99985263       0.00119136       0.99919726 </v>
    <v>       0.99985263       0.00119136       0.50080274 </v>
    <v>       0.74850540       0.24838380       0.99607908 </v>
    <v>       0.49994088       0.00131669       0.00074741 </v>
    <v>       0.74817286       0.74803872       0.00168009 </v>
    <v>       0.49606677       0.50227694       0.75000000 </v>
    <v>       0.99930504       0.49970312       0.50056122 </v>
    <v>       0.25064419       0.74840255       0.99833908 </v>
    <v>       0.24995006       0.24880741       0.49601767 </v>
    <v>       0.74850540       0.24838380       0.50392092 </v>
    <v>       0.49994088       0.00131669       0.49925259 </v>
    <v>       0.99590688       0.50280688       0.25000000 </v>
    <v>       0.24995006       0.24880741       0.00398233 </v>
    <v>       0.24989575       0.74617219       0.75000000 </v>
    <v>       0.24954053       0.75728788       0.25000000 </v>
    <v>       0.75018570       0.74630538       0.25000000 </v>
    <v>       0.00294582       0.50167192       0.75000000 </v>
    <v>       0.74943834       0.75672404       0.75000000 </v>
    <v>       0.99930504       0.49970312       0.99943878 </v>
    <v>       0.74998035       0.25075685       0.25000000 </v>
    <v>       0.50275884       0.50148553       0.25000000 </v>
    <v>       0.25006508       0.25083618       0.75000000 </v>
    <v>       0.25064419       0.74840255       0.50166092 </v>
    <v>       0.74817286       0.74803872       0.49831991 </v>
    <v>       0.49923250       0.49951428       0.49922711 </v>
    <v>       0.49923250       0.49951428       0.00077289 </v>
    <v>       0.75491778       0.27649619       0.75000000 </v>
    <v>       0.51461341       0.98960229       0.25000000 </v>
    <v>       0.01453495       0.98988034       0.75000000 </v>
    <v>       0.49209707       0.98550545       0.75000000 </v>
    <v>       0.99221045       0.98602847       0.25000000 </v>
    <v>       0.25339369       0.27685552       0.25000000 </v>
    <v>       0.00791865       0.01038386       0.12624158 </v>
    <v>       0.98810202       0.00764885       0.62791057 </v>
    <v>       0.99210195       0.50136720       0.12413215 </v>
    <v>       0.00752355       0.49904521       0.62486236 </v>
    <v>       0.48833039       0.00775531       0.12756038 </v>
    <v>       0.50797847       0.01100469       0.62617256 </v>
    <v>       0.50578966       0.49947565       0.12619161 </v>
    <v>       0.49340911       0.50164197       0.62529505 </v>
    <v>       0.00791865       0.01038386       0.37375842 </v>
    <v>       0.98810202       0.00764885       0.87208943 </v>
    <v>       0.99210195       0.50136720       0.37586785 </v>
    <v>       0.00752355       0.49904521       0.87513764 </v>
    <v>       0.48833039       0.00775531       0.37243962 </v>
    <v>       0.50797847       0.01100469       0.87382744 </v>
    <v>       0.50578966       0.49947565       0.37380839 </v>
    <v>       0.49340911       0.50164197       0.87470495 </v>
    <v>       0.24158057       0.21633655       0.36133917 </v>
    <v>       0.25028851       0.25550781       0.87760793 </v>
    <v>       0.24734445       0.75286257       0.37551423 </v>
    <v>       0.24863881       0.74611452       0.87486616 </v>
    <v>       0.75158646       0.25531865       0.37751491 </v>
    <v>       0.74472842       0.21618606       0.86144312 </v>
    <v>       0.75108711       0.74646827       0.37489912 </v>
    <v>       0.74932026       0.75253038       0.87550263 </v>
    <v>       0.24158057       0.21633655       0.13866083 </v>
    <v>       0.25028851       0.25550781       0.62239207 </v>
    <v>       0.24734445       0.75286257       0.12448577 </v>
    <v>       0.24863881       0.74611452       0.62513384 </v>
    <v>       0.75158646       0.25531865       0.12248509 </v>
    <v>       0.74472842       0.21618606       0.63855688 </v>
    <v>       0.75108711       0.74646827       0.12510088 </v>
    <v>       0.74932026       0.75253038       0.62449737 </v>
    <v>       0.61020635       0.14312561       0.25000000 </v>
    <v>       0.86882167       0.11622270       0.25000000 </v>
    <v>       0.13864775       0.39611391       0.25000000 </v>
    <v>       0.39987684       0.35369875       0.25000000 </v>
    <v>       0.64570983       0.39303582       0.25000000 </v>
    <v>       0.89319589       0.35901262       0.25000000 </v>
    <v>       0.10606814       0.64497129       0.25000000 </v>
    <v>       0.35927312       0.61161724       0.25000000 </v>
    <v>       0.60749621       0.64439733       0.25000000 </v>
    <v>       0.85488436       0.60551535       0.25000000 </v>
    <v>       0.14758014       0.90355560       0.25000000 </v>
    <v>       0.38889928       0.86388112       0.25000000 </v>
    <v>       0.64930241       0.89080522       0.25000000 </v>
    <v>       0.89311567       0.85150819       0.25000000 </v>
    <v>       0.13843349       0.11128970       0.50561074 </v>
    <v>       0.38706657       0.13833544       0.50052359 </v>
    <v>       0.63915520       0.11081476       0.49450474 </v>
    <v>       0.88771985       0.13898239       0.49937810 </v>
    <v>       0.11214929       0.35978326       0.49164832 </v>
    <v>       0.35956100       0.38188148       0.48915821 </v>
    <v>       0.61559491       0.35853058       0.50869201 </v>
    <v>       0.86189389       0.38455988       0.51026204 </v>
    <v>       0.13602760       0.61188671       0.49825651 </v>
    <v>       0.38384314       0.63769349       0.49698075 </v>
    <v>       0.63781628       0.61451302       0.50111244 </v>
    <v>       0.88724296       0.63664119       0.50313320 </v>
    <v>       0.11173345       0.86376778       0.50254794 </v>
    <v>       0.36323905       0.88759425       0.50496537 </v>
    <v>       0.61203192       0.86404167       0.49752939 </v>
    <v>       0.86358566       0.88750182       0.49536127 </v>
    <v>       0.10943840       0.14340205       0.75000000 </v>
    <v>       0.36769477       0.11593214       0.75000000 </v>
    <v>       0.14542216       0.39403350       0.75000000 </v>
    <v>       0.39175490       0.35873875       0.75000000 </v>
    <v>       0.63857625       0.39372143       0.75000000 </v>
    <v>       0.90146188       0.35403598       0.75000000 </v>
    <v>       0.10605504       0.64433722       0.75000000 </v>
    <v>       0.35451962       0.60636459       0.75000000 </v>
    <v>       0.60772562       0.64483176       0.75000000 </v>
    <v>       0.85979165       0.60937696       0.75000000 </v>
    <v>       0.14915225       0.89100012       0.75000000 </v>
    <v>       0.39292072       0.85088838       0.75000000 </v>
    <v>       0.64771870       0.90285673       0.75000000 </v>
    <v>       0.88925332       0.86347267       0.75000000 </v>
    <v>       0.13843349       0.11128970       0.99438926 </v>
    <v>       0.38706657       0.13833544       0.99947641 </v>
    <v>       0.63915520       0.11081476       0.00549526 </v>
    <v>       0.88771985       0.13898239       0.00062190 </v>
    <v>       0.11214929       0.35978326       0.00835168 </v>
    <v>       0.35956100       0.38188148       0.01084179 </v>
    <v>       0.61559491       0.35853058       0.99130799 </v>
    <v>       0.86189389       0.38455988       0.98973796 </v>
    <v>       0.13602760       0.61188671       0.00174349 </v>
    <v>       0.38384314       0.63769349       0.00301925 </v>
    <v>       0.63781628       0.61451302       0.99888756 </v>
    <v>       0.88724296       0.63664119       0.99686680 </v>
    <v>       0.11173345       0.86376778       0.99745206 </v>
    <v>       0.36323905       0.88759425       0.99503463 </v>
    <v>       0.61203192       0.86404167       0.00247061 </v>
    <v>       0.86358566       0.88750182       0.00463873 </v>
   </varray>
  </structure>
  <varray name="forces" >
   <v>       0.00165465       0.00041867       0.00042694 </v>
   <v>       0.00570765      -0.01175345       0.00101385 </v>
   <v>       0.00508084      -0.00118132      -0.01294768 </v>
   <v>       0.00167088       0.00612828       0.00011237 </v>
   <v>       0.00321639      -0.01518861      -0.00312241 </v>
   <v>      -0.00581170       0.00206512      -0.00698998 </v>
   <v>      -0.00323312       0.00171403      -0.00097846 </v>
   <v>       0.00222829       0.00005074      -0.00363182 </v>
   <v>       0.00165465       0.00041867      -0.00042694 </v>
   <v>       0.00570765      -0.01175345      -0.00101385 </v>
   <v>       0.00508084      -0.00118132       0.01294768 </v>
   <v>       0.00167088       0.00612828      -0.00011237 </v>
   <v>       0.00321639      -0.01518861       0.00312241 </v>
   <v>      -0.00581170       0.00206512       0.00698998 </v>
   <v>      -0.00323312       0.00171403       0.00097846 </v>
   <v>       0.00222829       0.00005074       0.00363182 </v>
   <v>       0.00037408       0.00324874      -0.00608763 </v>
   <v>      -0.00150746       0.00987320      -0.00682524 </v>
   <v>      -0.00871801       0.00091487       0.00142059 </v>
   <v>      -0.00470828      -0.00761638      -0.00112706 </v>
   <v>       0.00622007       0.01156543      -0.00409179 </v>
   <v>       0.00634426       0.00026488      -0.00082190 </v>
   <v>       0.00382511      -0.01426771      -0.00397010 </v>
   <v>       0.00063213       0.00194519       0.00040712 </v>
   <v>       0.00037408       0.00324874       0.00608763 </v>
   <v>      -0.00150746       0.00987320       0.00682524 </v>
   <v>      -0.00871801       0.00091487      -0.00142059 </v>
   <v>      -0.00470828      -0.00761638       0.00112706 </v>
   <v>       0.00622007       0.01156543       0.00409179 </v>
   <v>       0.00634426       0.00026488       0.00082190 </v>
   <v>       0.00382511      -0.01426771       0.00397010 </v>
   <v>       0.00063213       0.00194519      -0.00040712 </v>
   <v>       0.00657066       0.01494877      -0.00156847 </v>
   <v>       0.00657066       0.01494877       0.00156847 </v>
   <v>      -0.00788334       0.00384072      -0.00850117 </v>
   <v>      -0.01269532       0.02229795      -0.00167218 </v>
   <v>       0.00615887       0.00369794      -0.02473842 </v>
   <v>      -0.00818807      -0.02021503       0.00000000 </v>
   <v>       0.00541153      -0.01943933      -0.00812836 </v>
   <v>      -0.00738604       0.00484145      -0.00461660 </v>
   <v>      -0.00121477      -0.00209615      -0.00988977 </v>
   <v>      -0.00788334       0.00384072       0.00850117 </v>
   <v>      -0.01269532       0.02229795       0.00167218 </v>
   <v>       0.02297177      -0.02732545       0.00000000 </v>
   <v>      -0.00121477      -0.00209615       0.00988977 </v>
   <v>       0.00512997       0.01018076       0.00000000 </v>
   <v>      -0.01378166       0.00895169       0.00000000 </v>
   <v>       0.01433457       0.01237853       0.00000000 </v>
   <v>      -0.00138090      -0.03262891       0.00000000 </v>
   <v>       0.00112343       0.01666615       0.00000000 </v>
   <v>       0.00541153      -0.01943933       0.00812836 </v>
   <v>       0.03933720      -0.01256207       0.00000000 </v>
   <v>      -0.02217741      -0.02313731       0.00000000 </v>
   <v>      -0.02072203      -0.03294370       0.00000000 </v>
   <v>      -0.00738604       0.00484145       0.00461660 </v>
   <v>       0.00615887       0.00369794       0.02473842 </v>
   <v>      -0.00547461      -0.01147229       0.00623685 </v>
   <v>      -0.00547461      -0.01147229      -0.00623685 </v>
   <v>       0.00805267      -0.00663988       0.00000000 </v>
   <v>      -0.00806978       0.01671778       0.00000000 </v>
   <v>       0.00242288       0.01401084       0.00000000 </v>
   <v>      -0.00296783       0.00057312       0.00000000 </v>
   <v>       0.00321307       0.01679735       0.00000000 </v>
   <v>      -0.03898361      -0.00846813       0.00000000 </v>
   <v>      -0.00833202      -0.00681019      -0.01101643 </v>
   <v>      -0.00819627       0.00661147      -0.00492236 </v>
   <v>       0.00446449      -0.00040926      -0.01274464 </v>
   <v>      -0.00508438       0.00823308       0.00495723 </v>
   <v>      -0.00175265       0.00690362       0.00286423 </v>
   <v>      -0.00334661      -0.00049191      -0.00796857 </v>
   <v>      -0.00750530       0.00404374       0.00433582 </v>
[...]
       <r>   -16.1761     0.0000    32.0000 </r>
       <r>   -16.0241     0.0000    32.0000 </r>
       <r>   -15.8721     0.0000    32.0000 </r>
       <r>   -15.7201     0.0000    32.0000 </r>
       <r>   -15.5681     0.0000    32.0000 </r>
       <r>   -15.4160     0.0000    32.0000 </r>
       <r>   -15.2640     0.0000    32.0000 </r>
       <r>   -15.1120     2.2980    32.3493 </r>
       <r>   -14.9600    32.8270    37.3397 </r>
       <r>   -14.8080    55.4474    45.7689 </r>
       <r>   -14.6559    41.0126    52.0037 </r>
       <r>   -14.5039    29.0122    56.4141 </r>
       <r>   -14.3519    34.4076    61.6448 </r>
       <r>   -14.1999    58.1213    70.4804 </r>
       <r>   -14.0479   115.1424    87.9845 </r>
       <r>   -13.8958   125.0093   106.9885 </r>
       <r>   -13.7438    68.7354   117.4377 </r>
       <r>   -13.5918    40.2379   123.5547 </r>
       <r>   -13.4398     2.9289   124.0000 </r>
       <r>   -13.2877     0.0000   124.0000 </r>
       <r>   -13.1357     0.0000   124.0000 </r>
       <r>   -12.9837     0.0000   124.0000 </r>
       <r>   -12.8317     0.0000   124.0000 </r>
       <r>   -12.6797     0.7095   124.1079 </r>
       <r>   -12.5276    50.8021   131.8308 </r>
       <r>   -12.3756   165.2547   156.9530 </r>
       <r>   -12.2236   142.2943   178.5847 </r>
       <r>   -12.0716   126.1779   197.7664 </r>
       <r>   -11.9196   105.9494   213.8729 </r>
       <r>   -11.7675    39.6744   219.9042 </r>
       <r>   -11.6155     0.6301   220.0000 </r>
       <r>   -11.4635     0.0000   220.0000 </r>
       <r>   -11.3115     0.0000   220.0000 </r>
       <r>   -11.1595     0.0000   220.0000 </r>
       <r>   -11.0074     0.0000   220.0000 </r>
       <r>   -10.8554     0.0000   220.0000 </r>
       <r>   -10.7034     0.0000   220.0000 </r>
       <r>   -10.5514     0.0000   220.0000 </r>
       <r>   -10.3994     0.0000   220.0000 </r>
       <r>   -10.2473     0.0000   220.0000 </r>
       <r>   -10.0953     0.0000   220.0000 </r>
       <r>    -9.9433     0.0000   220.0000 </r>
       <r>    -9.7913     0.0000   220.0000 </r>
       <r>    -9.6392     0.0000   220.0000 </r>
       <r>    -9.4872     0.0000   220.0000 </r>
       <r>    -9.3352     0.0000   220.0000 </r>
       <r>    -9.1832     0.0000   220.0000 </r>
       <r>    -9.0312     0.0000   220.0000 </r>
       <r>    -8.8791     0.0000   220.0000 </r>
       <r>    -8.7271     0.0000   220.0000 </r>
       <r>    -8.5751     0.0000   220.0000 </r>
       <r>    -8.4231     0.0000   220.0000 </r>
       <r>    -8.2711     0.0000   220.0000 </r>
       <r>    -8.1190     0.0000   220.0000 </r>
       <r>    -7.9670     0.0000   220.0000 </r>
       <r>    -7.8150     0.0000   220.0000 </r>
       <r>    -7.6630     0.0000   220.0000 </r>
       <r>    -7.5110     0.0000   220.0000 </r>
       <r>    -7.3589     0.0000   220.0000 </r>
       <r>    -7.2069     0.0000   220.0000 </r>
       <r>    -7.0549     0.0000   220.0000 </r>
       <r>    -6.9029     0.0000   220.0000 </r>
       <r>    -6.7508     0.0000   220.0000 </r>
       <r>    -6.5988     0.0000   220.0000 </r>
       <r>    -6.4468     0.0000   220.0000 </r>
       <r>    -6.2948     0.0000   220.0000 </r>
       <r>    -6.1428     0.0000   220.0000 </r>
       <r>    -5.9907     0.0000   220.0000 </r>
       <r>    -5.8387     0.0000   220.0000 </r>
       <r>    -5.6867     0.0000   220.0000 </r>
       <r>    -5.5347     0.0000   220.0000 </r>
       <r>    -5.3827     0.0000   220.0000 </r>
       <r>    -5.2306     0.0000   220.0000 </r>
       <r>    -5.0786     0.0000   220.0000 </r>
       <r>    -4.9266     0.0000   220.0000 </r>
       <r>    -4.7746     0.0000   220.0000 </r>
       <r>    -4.6226     0.0000   220.0000 </r>
       <r>    -4.4705     0.0000   220.0000 </r>
       <r>    -4.3185     0.0000   220.0000 </r>
       <r>    -4.1665     0.0000   220.0000 </r>
       <r>    -4.0145     0.0000   220.0000 </r>
       <r>    -3.8625     0.0000   220.0000 </r>
       <r>    -3.7104     0.0000   220.0000 </r>
       <r>    -3.5584     0.0000   220.0000 </r>
       <r>    -3.4064     0.0000   220.0000 </r>
       <r>    -3.2544     0.0000   220.0000 </r>
       <r>    -3.1023     0.0000   220.0000 </r>
       <r>    -2.9503     0.0000   220.0000 </r>
       <r>    -2.7983     0.0000   220.0000 </r>
       <r>    -2.6463     0.0000   220.0000 </r>
       <r>    -2.4943     0.0000   220.0000 </r>
       <r>    -2.3422     0.9959   220.1514 </r>
       <r>    -2.1902     9.9600   221.6655 </r>
       <r>    -2.0382    29.1652   226.0992 </r>
       <r>    -1.8862    39.3078   232.0748 </r>
       <r>    -1.7342    43.0648   238.6216 </r>
       <r>    -1.5821    50.3169   246.2708 </r>
       <r>    -1.4301    51.9579   254.1695 </r>
       <r>    -1.2781    57.2855   262.8781 </r>
       <r>    -1.1261    76.7903   274.5518 </r>
       <r>    -0.9741    77.0665   286.2675 </r>
       <r>    -0.8220    70.8700   297.0413 </r>
       <r>    -0.6700    87.6120   310.3601 </r>
       <r>    -0.5180   109.9417   327.0736 </r>
       <r>    -0.3660   100.0742   342.2869 </r>
       <r>    -0.2140    64.7161   352.1251 </r>
       <r>    -0.0619    52.8055   360.1527 </r>
       <r>     0.0901    47.8307   367.4239 </r>
       <r>     0.2421    50.7568   375.1400 </r>
       <r>     0.3941    50.1296   382.7608 </r>
       <r>     0.5462    52.2956   390.7108 </r>
       <r>     0.6982    58.2194   399.5614 </r>
       <r>     0.8502    43.2614   406.1380 </r>
       <r>     1.0022    49.3936   413.6469 </r>
       <r>     1.1542    66.6187   423.7743 </r>
       <r>     1.3063    94.0754   438.0757 </r>
       <r>     1.4583    88.2865   451.4971 </r>
       <r>     1.6103    84.7590   464.3823 </r>
       <r>     1.7623    78.3007   476.2856 </r>
       <r>     1.9143    58.5208   485.1820 </r>
       <r>     2.0664    38.1590   490.9829 </r>
       <r>     2.2184    27.5965   495.1782 </r>
       <r>     2.3704     5.4057   496.0000 </r>
       <r>     2.5224     0.0002   496.0000 </r>
       <r>     2.6744     0.0000   496.0000 </r>
       <r>     2.8265     0.0000   496.0000 </r>
       <r>     2.9785     0.0000   496.0000 </r>
       <r>     3.1305     0.0000   496.0000 </r>
       <r>     3.2825     0.0000   496.0000 </r>
       <r>     3.4346     0.0000   496.0000 </r>
       <r>     3.5866     0.0000   496.0000 </r>
       <r>     3.7386     0.0000   496.0000 </r>
       <r>     3.8906     0.0000   496.0000 </r>
       <r>     4.0426     0.0000   496.0000 </r>
       <r>     4.1947     0.0000   496.0000 </r>
       <r>     4.3467     0.0001   496.0000 </r>
       <r>     4.4987     6.4318   496.9778 </r>
       <r>     4.6507    36.9088   502.5887 </r>
       <r>     4.8027    47.5558   509.8182 </r>
       <r>     4.9548    28.7085   514.1825 </r>
       <r>     5.1068    47.5577   521.4122 </r>
       <r>     5.2588    58.8138   530.3532 </r>
       <r>     5.4108    67.1233   540.5573 </r>
       <r>     5.5628    53.7238   548.7244 </r>
       <r>     5.7149    76.4922   560.3529 </r>
       <r>     5.8669    74.3160   571.6504 </r>
       <r>     6.0189    92.7103   585.7443 </r>
       <r>     6.1709    78.3417   597.6539 </r>
       <r>     6.3229    53.4951   605.7863 </r>
       <r>     6.4750    43.3043   612.3694 </r>
       <r>     6.6270    16.7017   614.9084 </r>
       <r>     6.7790    19.5098   617.8743 </r>
       <r>     6.9310    18.0618   620.6201 </r>
       <r>     7.0831    21.2432   623.8495 </r>
       <r>     7.2351    19.9019   626.8750 </r>
       <r>     7.3871    14.0625   629.0128 </r>
       <r>     7.5391    12.2975   630.8823 </r>
       <r>     7.6911    21.6589   634.1749 </r>
       <r>     7.8432    19.4403   637.1302 </r>
       <r>     7.9952    18.0863   639.8797 </r>
       <r>     8.1472    22.6052   643.3162 </r>
       <r>     8.2992    26.4268   647.3336 </r>
       <r>     8.4512    23.0969   650.8448 </r>
       <r>     8.6033    25.3406   654.6971 </r>
       <r>     8.7553    22.3057   658.0881 </r>
       <r>     8.9073    27.8538   662.3224 </r>
       <r>     9.0593    35.2606   667.6828 </r>
       <r>     9.2113    36.3783   673.2130 </r>
       <r>     9.3634    42.2261   679.6323 </r>
       <r>     9.5154    37.2770   685.2992 </r>
       <r>     9.6674    41.1084   691.5485 </r>
       <r>     9.8194    50.2104   699.1815 </r>
       <r>     9.9714    69.1263   709.6902 </r>
       <r>    10.1235    68.7480   720.1413 </r>
       <r>    10.2755    64.8851   730.0052 </r>
       <r>    10.4275    61.7463   739.3919 </r>
       <r>    10.5795    59.7859   748.4807 </r>
       <r>    10.7316    56.6516   757.0929 </r>
       <r>    10.8836    49.2340   764.5775 </r>
       <r>    11.0356    22.4927   767.9968 </r>
       <r>    11.1876     0.0208   768.0000 </r>
       <r>    11.3396     0.0000   768.0000 </r>
       <r>    11.4917     0.0000   768.0000 </r>
       <r>    11.6437     0.0000   768.0000 </r>
       <r>    11.7957     0.0000   768.0000 </r>
       <r>    11.9477     0.0000   768.0000 </r>
       <r>    12.0997     0.0000   768.0000 </r>
       <r>    12.2518     0.0000   768.0000 </r>
       <r>    12.4038     0.0000   768.0000 </r>
       <r>    12.5558     0.0000   768.0000 </r>
       <r>    12.7078     0.0000   768.0000 </r>
       <r>    12.8598     0.0000   768.0000 </r>
       <r>    13.0119     0.0000   768.0000 </r>
      </set>
     </set>
    </array>
   </total>
  </dos>
 </calculation>
 <structure name="finalpos" >
  <crystal>
   <varray name="basis" >
    <v>      11.23787844      -0.00484856       0.00000000 </v>
    <v>      -0.00481302      11.24458643       0.00000000 </v>
    <v>       0.00000000       0.00000000      15.84498938 </v>
   </varray>
   <i name="volume">   2002.25639326 </i>
   <varray name="rec_basis" >
    <v>       0.08898478       0.00003809       0.00000000 </v>
    <v>       0.00003837       0.08893170       0.00000000 </v>
    <v>       0.00000000       0.00000000       0.06311143 </v>
   </varray>
  </crystal>
  <varray name="positions" >
   <v>       0.99253048       0.24932954       0.12283438 </v>
   <v>       0.00684745       0.24962691       0.62146187 </v>
   <v>       0.99933447       0.74921068       0.12175949 </v>
   <v>       0.99827328       0.75070092       0.62512107 </v>
   <v>       0.50668653       0.25288095       0.12108802 </v>
   <v>       0.49256271       0.25237859       0.62225547 </v>
   <v>       0.49853634       0.74727556       0.12458384 </v>
   <v>       0.49882695       0.74521641       0.62127557 </v>
   <v>       0.99253048       0.24932954       0.37716562 </v>
   <v>       0.00684745       0.24962691       0.87853813 </v>
   <v>       0.99933447       0.74921068       0.37824051 </v>
   <v>       0.99827328       0.75070092       0.87487893 </v>
   <v>       0.50668653       0.25288095       0.37891198 </v>
   <v>       0.49256271       0.25237859       0.87774453 </v>
   <v>       0.49853634       0.74727556       0.37541616 </v>
   <v>       0.49882695       0.74521641       0.87872443 </v>
   <v>       0.24797534       0.99123114       0.11668677 </v>
   <v>       0.25338592       0.00275145       0.62553599 </v>
   <v>       0.25146292       0.51094329       0.12330604 </v>
   <v>       0.25272678       0.49801483       0.62234889 </v>
   <v>       0.75353495       0.00248740       0.12553074 </v>
   <v>       0.74815266       0.99082635       0.61679930 </v>
   <v>       0.74744083       0.49827516       0.12256089 </v>
   <v>       0.74390594       0.51021528       0.62320744 </v>
   <v>       0.24797534       0.99123114       0.38331323 </v>
   <v>       0.25338592       0.00275145       0.87446401 </v>
   <v>       0.25146292       0.51094329       0.37669396 </v>
   <v>       0.25272678       0.49801483       0.87765111 </v>
   <v>       0.75353495       0.00248740       0.37446926 </v>
   <v>       0.74815266       0.99082635       0.88320070 </v>
   <v>       0.74744083       0.49827516       0.37743911 </v>
   <v>       0.74390594       0.51021528       0.87679256 </v>
   <v>       0.99988453       0.00128997       0.99917477 </v>
   <v>       0.99988453       0.00128997       0.50082523 </v>
   <v>       0.74843365       0.24837649       0.99601517 </v>
   <v>       0.49987800       0.00139594       0.00076370 </v>
   <v>       0.74821040       0.74806783       0.00169113 </v>
   <v>       0.49609203       0.50228381       0.75000000 </v>
   <v>       0.99931437       0.49962597       0.50056406 </v>
   <v>       0.25060689       0.74848949       0.99828321 </v>
   <v>       0.24995456       0.24881347       0.49593748 </v>
   <v>       0.74843365       0.24837649       0.50398483 </v>
   <v>       0.49987800       0.00139594       0.49923630 </v>
   <v>       0.99592031       0.50273841       0.25000000 </v>
   <v>       0.24995456       0.24881347       0.00406252 </v>
   <v>       0.24986835       0.74620135       0.75000000 </v>
   <v>       0.24948412       0.75739918       0.25000000 </v>
   <v>       0.75019286       0.74631346       0.25000000 </v>
   <v>       0.00290463       0.50157354       0.75000000 </v>
   <v>       0.74940075       0.75683210       0.75000000 </v>
   <v>       0.99931437       0.49962597       0.99943594 </v>
   <v>       0.75009941       0.25059599       0.25000000 </v>
   <v>       0.50260133       0.50137546       0.25000000 </v>
   <v>       0.25009456       0.25069751       0.75000000 </v>
   <v>       0.25060689       0.74848949       0.50171679 </v>
   <v>       0.74821040       0.74806783       0.49830887 </v>
   <v>       0.49918371       0.49947754       0.49924142 </v>
   <v>       0.49918371       0.49947754       0.00075858 </v>
   <v>       0.75497702       0.27657637       0.75000000 </v>
   <v>       0.51463179       0.98960668       0.25000000 </v>
   <v>       0.01458302       0.98995367       0.75000000 </v>
   <v>       0.49206816       0.98536764       0.75000000 </v>
   <v>       0.99220705       0.98593400       0.25000000 </v>
   <v>       0.25332026       0.27691197       0.25000000 </v>
   <v>       0.00777464       0.01028697       0.12620763 </v>
   <v>       0.98797579       0.00777015       0.62793479 </v>
   <v>       0.99220718       0.50131500       0.12410108 </v>
   <v>       0.00742570       0.49915328       0.62488971 </v>
   <v>       0.48828300       0.00790877       0.12761012 </v>
   <v>       0.50791790       0.01102295       0.62613433 </v>
   <v>       0.50564233       0.49951891       0.12616697 </v>
   <v>       0.49355989       0.50152656       0.62527692 </v>
   <v>       0.00777464       0.01028697       0.37379237 </v>
   <v>       0.98797579       0.00777015       0.87206521 </v>
   <v>       0.99220718       0.50131500       0.37589892 </v>
   <v>       0.00742570       0.49915328       0.87511029 </v>
   <v>       0.48828300       0.00790877       0.37238988 </v>
   <v>       0.50791790       0.01102295       0.87386567 </v>
   <v>       0.50564233       0.49951891       0.37383303 </v>
   <v>       0.49355989       0.50152656       0.87472308 </v>
   <v>       0.24143277       0.21621989       0.36135501 </v>
   <v>       0.25034054       0.25530706       0.87761739 </v>
   <v>       0.24724844       0.75295786       0.37550058 </v>
   <v>       0.24874725       0.74609049       0.87484627 </v>
   <v>       0.75168762       0.25510894       0.37752497 </v>
   <v>       0.74463789       0.21609551       0.86144967 </v>
   <v>       0.75119936       0.74647098       0.37481271 </v>
   <v>       0.74918862       0.75256807       0.87550753 </v>
   <v>       0.24143277       0.21621989       0.13864499 </v>
   <v>       0.25034054       0.25530706       0.62238261 </v>
   <v>       0.24724844       0.75295786       0.12449942 </v>
   <v>       0.24874725       0.74609049       0.62515373 </v>
   <v>       0.75168762       0.25510894       0.12247503 </v>
   <v>       0.74463789       0.21609551       0.63855033 </v>
   <v>       0.75119936       0.74647098       0.12518729 </v>
   <v>       0.74918862       0.75256807       0.62449247 </v>
   <v>       0.61036929       0.14299470       0.25000000 </v>
   <v>       0.86889755       0.11618411       0.25000000 </v>
   <v>       0.13887443       0.39630603       0.25000000 </v>
   <v>       0.40004654       0.35372466       0.25000000 </v>
   <v>       0.64555994       0.39285055       0.25000000 </v>
   <v>       0.89326241       0.35901126       0.25000000 </v>
   <v>       0.10619370       0.64494514       0.25000000 </v>
   <v>       0.35928162       0.61146510       0.25000000 </v>
   <v>       0.60742244       0.64435255       0.25000000 </v>
   <v>       0.85473261       0.60545565       0.25000000 </v>
   <v>       0.14783561       0.90372966       0.25000000 </v>
   <v>       0.38904293       0.86389720       0.25000000 </v>
   <v>       0.64955561       0.89090796       0.25000000 </v>
   <v>       0.89307869       0.85133354       0.25000000 </v>
   <v>       0.13833864       0.11133149       0.50557269 </v>
   <v>       0.38693825       0.13822000       0.50046702 </v>
   <v>       0.63890855       0.11100445       0.49453194 </v>
   <v>       0.88763677       0.13889336       0.49943638 </v>
   <v>       0.11229796       0.35997429       0.49167947 </v>
   <v>       0.35966039       0.38178428       0.48921946 </v>
   <v>       0.61570567       0.35866769       0.50865262 </v>
   <v>       0.86193897       0.38450395       0.51025922 </v>
   <v>       0.13590947       0.61201054       0.49822287 </v>
   <v>       0.38371206       0.63775500       0.49705253 </v>
   <v>       0.63771693       0.61474815       0.50111098 </v>
   <v>       0.88701413       0.63650799       0.50319898 </v>
   <v>       0.11183672       0.86399501       0.50269013 </v>
   <v>       0.36323740       0.88757004       0.50490304 </v>
   <v>       0.61218257       0.86421880       0.49738748 </v>
   <v>       0.86361575       0.88749541       0.49542204 </v>
   <v>       0.10960363       0.14321582       0.75000000 </v>
   <v>       0.36773073       0.11580690       0.75000000 </v>
   <v>       0.14541615       0.39386466       0.75000000 </v>
   <v>       0.39183969       0.35881016       0.75000000 </v>
   <v>       0.63866445       0.39389716       0.75000000 </v>
   <v>       0.90154803       0.35405642       0.75000000 </v>
   <v>       0.10599619       0.64439991       0.75000000 </v>
   <v>       0.35446423       0.60623624       0.75000000 </v>
   <v>       0.60778607       0.64484609       0.75000000 </v>
   <v>       0.85977277       0.60923022       0.75000000 </v>
   <v>       0.14931599       0.89107539       0.75000000 </v>
   <v>       0.39285913       0.85078395       0.75000000 </v>
   <v>       0.64792125       0.90300993       0.75000000 </v>
   <v>       0.88934503       0.86344188       0.75000000 </v>
   <v>       0.13833864       0.11133149       0.99442731 </v>
   <v>       0.38693825       0.13822000       0.99953298 </v>
   <v>       0.63890855       0.11100445       0.00546806 </v>
   <v>       0.88763677       0.13889336       0.00056362 </v>
   <v>       0.11229796       0.35997429       0.00832053 </v>
   <v>       0.35966039       0.38178428       0.01078054 </v>
   <v>       0.61570567       0.35866769       0.99134738 </v>
   <v>       0.86193897       0.38450395       0.98974078 </v>
   <v>       0.13590947       0.61201054       0.00177713 </v>
   <v>       0.38371206       0.63775500       0.00294747 </v>
   <v>       0.63771693       0.61474815       0.99888902 </v>
   <v>       0.88701413       0.63650799       0.99680102 </v>
   <v>       0.11183672       0.86399501       0.99730987 </v>
   <v>       0.36323740       0.88757004       0.99509696 </v>
   <v>       0.61218257       0.86421880       0.00261252 </v>
   <v>       0.86361575       0.88749541       0.00457796 </v>
  </varray>
 </structure>
</modeling>
