       N       E                     dE             d eps       ncg     rms          rms(c)
DAV:   1    -0.111980412392E+04   -0.11198E+04   -0.48695E-02 13344   0.508E-01    0.110E-02
RMM:   2    -0.111980412526E+04   -0.13495E-05   -0.21286E-05  6943   0.762E-03    0.107E-02
RMM:   3    -0.111980412577E+04   -0.50230E-06   -0.85328E-06  6190   0.520E-03    0.477E-03
RMM:   4    -0.111980412649E+04   -0.72714E-06   -0.59183E-06  4614   0.311E-03    0.325E-03
RMM:   5    -0.111980412688E+04   -0.38971E-06   -0.33035E-06  4223   0.331E-03    0.249E-03
RMM:   6    -0.111980412710E+04   -0.22043E-06   -0.20658E-06  2785   0.222E-03    0.656E-04
RMM:   7    -0.111980412718E+04   -0.73953E-07   -0.11602E-06  2612   0.240E-03    0.509E-04
RMM:   8    -0.111980412726E+04   -0.81156E-07   -0.88496E-07  2309   0.205E-03
   1 F= -.11198041E+04 E0= -.11198041E+04  d E =-.111980E+04  mag=    40.0000
       N       E                     dE             d eps       ncg     rms          rms(c)
DAV:   1    -0.111980397194E+04    0.15524E-03   -0.13958E+00 12656   0.139E+00    0.493E-01
RMM:   2    -0.111980794454E+04   -0.39726E-02   -0.41574E-02 12337   0.273E-01    0.433E-01
RMM:   3    -0.111980797871E+04   -0.34170E-04   -0.21069E-03 12611   0.815E-02    0.260E-01
RMM:   4    -0.111980775280E+04    0.22591E-03   -0.69404E-04 11042   0.313E-02    0.144E-01
RMM:   5    -0.111980769941E+04    0.53394E-04   -0.29431E-04  9739   0.214E-02    0.665E-02
RMM:   6    -0.111980769770E+04    0.17095E-05   -0.38618E-05  7279   0.106E-02    0.291E-02
RMM:   7    -0.111980769703E+04    0.66684E-06   -0.17430E-05  7103   0.550E-03    0.180E-02
RMM:   8    -0.111980769718E+04   -0.14933E-06   -0.90229E-06  6747   0.513E-03
   2 F= -.11198077E+04 E0= -.11198077E+04  d E =-.356992E-02  mag=    40.0000
       N       E                     dE             d eps       ncg     rms          rms(c)
DAV:   1    -0.111980769718E+04   -0.15213E-06   -0.33057E-04 11808   0.218E-02    0.100E-02
RMM:   2    -0.111980769830E+04   -0.11152E-05   -0.11097E-05  6669   0.573E-03    0.914E-03
RMM:   3    -0.111980769861E+04   -0.31247E-06   -0.25061E-06  4471   0.268E-03    0.369E-03
RMM:   4    -0.111980769864E+04   -0.26819E-07   -0.57640E-07  2614   0.204E-03    0.264E-03
RMM:   5    -0.111980769865E+04   -0.18190E-07   -0.20617E-07  2044   0.198E-03    0.951E-04
RMM:   6    -0.111980769865E+04    0.76689E-08   -0.15965E-08  1460   0.186E-03    0.276E-04
RMM:   7    -0.111980769865E+04   -0.87311E-10   -0.29024E-09  1362   0.186E-03    0.124E-04
RMM:   8    -0.111980769865E+04    0.75670E-09   -0.18114E-09  1155   0.186E-03
   3 F= -.11198077E+04 E0= -.11198077E+04  d E =-.357139E-02  mag=    40.0000
       N       E                     dE             d eps       ncg     rms          rms(c)
DAV:   1    -0.111980786782E+04   -0.16917E-03   -0.12060E+00 12448   0.130E+00    0.336E-01
RMM:   2    -0.111981088677E+04   -0.30189E-02   -0.31633E-02 12359   0.235E-01    0.248E-01
RMM:   3    -0.111981092406E+04   -0.37293E-04   -0.16513E-03 12250   0.768E-02    0.151E-01
RMM:   4    -0.111981082817E+04    0.95896E-04   -0.49030E-04 10645   0.255E-02    0.836E-02
RMM:   5    -0.111981081047E+04    0.17696E-04   -0.12863E-04  7592   0.164E-02    0.672E-02
RMM:   6    -0.111981081416E+04   -0.36923E-05   -0.38615E-05  7126   0.107E-02    0.210E-02
RMM:   7    -0.111981081656E+04   -0.23948E-05   -0.20107E-05  6925   0.604E-03    0.128E-02
RMM:   8    -0.111981081803E+04   -0.14720E-05   -0.11603E-05  6586   0.574E-03
   4 F= -.11198108E+04 E0= -.11198108E+04  d E =-.311938E-02  mag=    40.0000
       N       E                     dE             d eps       ncg     rms          rms(c)
DAV:   1    -0.111980925430E+04    0.15623E-02   -0.10159E+00 12440   0.119E+00    0.309E-01
RMM:   2    -0.111981181783E+04   -0.25635E-02   -0.26843E-02 12371   0.216E-01    0.229E-01
RMM:   3    -0.111981185417E+04   -0.36345E-04   -0.14467E-03 12325   0.704E-02    0.140E-01
RMM:   4    -0.111981177241E+04    0.81766E-04   -0.40495E-04  9928   0.233E-02    0.776E-02
RMM:   5    -0.111981175921E+04    0.13198E-04   -0.12184E-04  7468   0.159E-02    0.627E-02
RMM:   6    -0.111981176200E+04   -0.27936E-05   -0.38039E-05  7134   0.107E-02    0.209E-02
RMM:   7    -0.111981176433E+04   -0.23287E-05   -0.20175E-05  6924   0.593E-03    0.119E-02
RMM:   8    -0.111981176578E+04   -0.14509E-05   -0.11632E-05  6636   0.583E-03
   5 F= -.11198118E+04 E0= -.11198118E+04  d E =-.406713E-02  mag=    40.0000
       N       E                     dE             d eps       ncg     rms          rms(c)
DAV:   1    -0.111981234381E+04   -0.57948E-03   -0.77796E-01 12784   0.104E+00    0.235E-01
RMM:   2    -0.111981414457E+04   -0.18008E-02   -0.19912E-02 12473   0.183E-01    0.160E-01
RMM:   3    -0.111981414711E+04   -0.25417E-05   -0.10338E-03 11617   0.602E-02    0.105E-01
RMM:   4    -0.111981410358E+04    0.43535E-04   -0.23283E-04  7826   0.188E-02    0.631E-02
RMM:   5    -0.111981409296E+04    0.10613E-04   -0.85828E-05  7145   0.131E-02    0.367E-02
RMM:   6    -0.111981409605E+04   -0.30864E-05   -0.29543E-05  7048   0.879E-03    0.196E-02
RMM:   7    -0.111981409734E+04   -0.12910E-05   -0.17266E-05  6816   0.576E-03    0.119E-02
RMM:   8    -0.111981409772E+04   -0.37660E-06   -0.10244E-05  6535   0.530E-03
   6 F= -.11198141E+04 E0= -.11198141E+04  d E =-.233194E-02  mag=    40.0000
       N       E                     dE             d eps       ncg     rms          rms(c)
DAV:   1    -0.111980835085E+04    0.57465E-02   -0.34840E+00 12608   0.219E+00    0.495E-01
RMM:   2    -0.111981635320E+04   -0.80024E-02   -0.88537E-02 12417   0.386E-01    0.337E-01
RMM:   3    -0.111981638595E+04   -0.32749E-04   -0.46435E-03 12500   0.129E-01    0.220E-01
RMM:   4    -0.111981620923E+04    0.17673E-03   -0.12375E-03 14081   0.394E-02    0.128E-01
RMM:   5    -0.111981615766E+04    0.51569E-04   -0.39405E-04 10341   0.216E-02    0.664E-02
RMM:   6    -0.111981616243E+04   -0.47684E-05   -0.75983E-05  7247   0.125E-02    0.308E-02
RMM:   7    -0.111981616556E+04   -0.31389E-05   -0.41405E-05  7166   0.836E-03    0.168E-02
RMM:   8    -0.111981616619E+04   -0.62189E-06   -0.24370E-05  7068   0.736E-03
   7 F= -.11198162E+04 E0= -.11198162E+04  d E =-.440041E-02  mag=    40.0000
       N       E                     dE             d eps       ncg     rms          rms(c)
DAV:   1    -0.111981568538E+04    0.48018E-03   -0.11583E+00 12368   0.125E+00    0.281E-01
RMM:   2    -0.111981855807E+04   -0.28727E-02   -0.28879E-02 12420   0.217E-01    0.182E-01
RMM:   3    -0.111981860660E+04   -0.48532E-04   -0.14987E-03 12023   0.729E-02    0.111E-01
RMM:   4    -0.111981853935E+04    0.67255E-04   -0.39187E-04  9805   0.222E-02    0.598E-02
RMM:   5    -0.111981852994E+04    0.94111E-05   -0.10124E-04  7224   0.141E-02    0.283E-02
RMM:   6    -0.111981853373E+04   -0.37943E-05   -0.33389E-05  7049   0.892E-03    0.155E-02
RMM:   7    -0.111981853563E+04   -0.19014E-05   -0.19921E-05  6695   0.596E-03    0.103E-02
RMM:   8    -0.111981853663E+04   -0.99881E-06   -0.12285E-05  6453   0.535E-03
   8 F= -.11198185E+04 E0= -.11198185E+04  d E =-.237044E-02  mag=    40.0000
       N       E                     dE             d eps       ncg     rms          rms(c)
DAV:   1    -0.111981191459E+04    0.66210E-02   -0.33310E+00 12352   0.211E+00    0.475E-01
RMM:   2    -0.111982012203E+04   -0.82074E-02   -0.82521E-02 12395   0.367E-01    0.307E-01
RMM:   3    -0.111982027875E+04   -0.15672E-03   -0.43128E-03 12366   0.124E-01    0.189E-01
RMM:   4    -0.111982008878E+04    0.18997E-03   -0.11521E-03 13242   0.373E-02    0.995E-02
RMM:   5    -0.111982006516E+04    0.23614E-04   -0.31897E-04  9730   0.199E-02    0.402E-02
RMM:   6    -0.111982007010E+04   -0.49332E-05   -0.65835E-05  7243   0.113E-02    0.222E-02
RMM:   7    -0.111982007338E+04   -0.32857E-05   -0.37099E-05  7071   0.773E-03    0.143E-02
RMM:   8    -0.111982007496E+04   -0.15767E-05   -0.23482E-05  6868   0.716E-03
   9 F= -.11198201E+04 E0= -.11198201E+04  d E =-.390877E-02  mag=    40.0000
       N       E                     dE             d eps       ncg     rms          rms(c)
DAV:   1    -0.111981867455E+04    0.13988E-02   -0.15219E+00 12432   0.142E+00    0.306E-01
RMM:   2    -0.111982229220E+04   -0.36177E-02   -0.37538E-02 12458   0.245E-01    0.212E-01
RMM:   3    -0.111982232205E+04   -0.29845E-04   -0.19208E-03 12126   0.816E-02    0.130E-01
RMM:   4    -0.111982224003E+04    0.82020E-04   -0.45321E-04 10497   0.241E-02    0.752E-02
RMM:   5    -0.111982221620E+04    0.23824E-04   -0.15343E-04  7418   0.165E-02    0.389E-02
RMM:   6    -0.111982222119E+04   -0.49831E-05   -0.44478E-05  7102   0.107E-02    0.233E-02
RMM:   7    -0.111982222366E+04   -0.24680E-05   -0.25879E-05  6877   0.663E-03    0.125E-02
RMM:   8    -0.111982222475E+04   -0.10988E-05   -0.15509E-05  6638   0.640E-03
  10 F= -.11198222E+04 E0= -.11198222E+04  d E =-.214980E-02  mag=    40.0000
       N       E                     dE             d eps       ncg     rms          rms(c)
DAV:   1    -0.111981467403E+04    0.75496E-02   -0.37352E+00 12416   0.222E+00    0.480E-01
RMM:   2    -0.111982352536E+04   -0.88513E-02   -0.91810E-02 12459   0.384E-01    0.332E-01
RMM:   3    -0.111982361422E+04   -0.88856E-04   -0.47040E-03 12424   0.128E-01    0.203E-01
RMM:   4    -0.111982341949E+04    0.19473E-03   -0.11378E-03 13556   0.376E-02    0.117E-01
RMM:   5    -0.111982336540E+04    0.54093E-04   -0.42408E-04 10758   0.219E-02    0.509E-02
RMM:   6    -0.111982337112E+04   -0.57220E-05   -0.72776E-05  7255   0.119E-02    0.270E-02
RMM:   7    -0.111982337435E+04   -0.32292E-05   -0.39224E-05  7103   0.798E-03    0.150E-02
RMM:   8    -0.111982337579E+04   -0.14466E-05   -0.24885E-05  6957   0.733E-03
  11 F= -.11198234E+04 E0= -.11198234E+04  d E =-.330083E-02  mag=    40.0000
       N       E                     dE             d eps       ncg     rms          rms(c)
DAV:   1    -0.111982126740E+04    0.21070E-02   -0.17206E+00 12704   0.150E+00    0.310E-01
RMM:   2    -0.111982541201E+04   -0.41446E-02   -0.42952E-02 12614   0.260E-01    0.211E-01
RMM:   3    -0.111982540826E+04    0.37452E-05   -0.20989E-03 12288   0.828E-02    0.133E-01
RMM:   4    -0.111982531863E+04    0.89628E-04   -0.48421E-04 10833   0.255E-02    0.754E-02
RMM:   5    -0.111982530080E+04    0.17838E-04   -0.16278E-04  7515   0.172E-02    0.578E-02
RMM:   6    -0.111982530609E+04   -0.52974E-05   -0.50256E-05  7137   0.116E-02    0.259E-02
RMM:   7    -0.111982530977E+04   -0.36815E-05   -0.27953E-05  7013   0.705E-03    0.152E-02
RMM:   8    -0.111982531178E+04   -0.20012E-05   -0.16925E-05  6923   0.684E-03
  12 F= -.11198253E+04 E0= -.11198253E+04  d E =-.193598E-02  mag=    40.0000
       N       E                     dE             d eps       ncg     rms          rms(c)
DAV:   1    -0.111981701096E+04    0.82988E-02   -0.39283E+00 12704   0.227E+00    0.470E-01
RMM:   2    -0.111982645178E+04   -0.94408E-02   -0.97899E-02 12639   0.395E-01    0.319E-01
RMM:   3    -0.111982645829E+04   -0.65072E-05   -0.47821E-03 12659   0.125E-01    0.201E-01
RMM:   4    -0.111982626283E+04    0.19546E-03   -0.11310E-03 13511   0.380E-02    0.114E-01
RMM:   5    -0.111982621829E+04    0.44540E-04   -0.41441E-04 10646   0.218E-02    0.580E-02
RMM:   6    -0.111982622470E+04   -0.64067E-05   -0.72907E-05  7253   0.124E-02    0.320E-02
RMM:   7    -0.111982622948E+04   -0.47815E-05   -0.40100E-05  7155   0.799E-03    0.167E-02
RMM:   8    -0.111982623243E+04   -0.29556E-05   -0.24835E-05  7075   0.767E-03
  13 F= -.11198262E+04 E0= -.11198262E+04  d E =-.285664E-02  mag=    40.0000
       N       E                     dE             d eps       ncg     rms          rms(c)
DAV:   1    -0.111982276489E+04    0.34646E-02   -0.22349E+00 12352   0.171E+00    0.359E-01
RMM:   2    -0.111982816086E+04   -0.53960E-02   -0.54841E-02 12513   0.293E-01    0.235E-01
RMM:   3    -0.111982821449E+04   -0.53634E-04   -0.27489E-03 12377   0.967E-02    0.144E-01
RMM:   4    -0.111982809735E+04    0.11714E-03   -0.66925E-04 12042   0.292E-02    0.792E-02
RMM:   5    -0.111982807622E+04    0.21129E-04   -0.19009E-04  7882   0.176E-02    0.467E-02
RMM:   6    -0.111982808168E+04   -0.54549E-05   -0.53060E-05  7185   0.110E-02    0.229E-02
RMM:   7    -0.111982808442E+04   -0.27369E-05   -0.28985E-05  6991   0.718E-03    0.145E-02
RMM:   8    -0.111982808558E+04   -0.11664E-05   -0.18099E-05  6730   0.653E-03
  14 F= -.11198281E+04 E0= -.11198281E+04  d E =-.185315E-02  mag=    40.0000
       N       E                     dE             d eps       ncg     rms          rms(c)
DAV:   1    -0.111982505163E+04    0.30328E-02   -0.14880E+00 12464   0.139E+00    0.292E-01
RMM:   2    -0.111982866744E+04   -0.36158E-02   -0.36747E-02 12609   0.240E-01    0.192E-01
RMM:   3    -0.111982869709E+04   -0.29654E-04   -0.18347E-03 12194   0.771E-02    0.118E-01
RMM:   4    -0.111982861624E+04    0.80853E-04   -0.41510E-04 10215   0.237E-02    0.650E-02
RMM:   5    -0.111982860170E+04    0.14536E-04   -0.12993E-04  7329   0.154E-02    0.360E-02
RMM:   6    -0.111982860580E+04   -0.40965E-05   -0.39316E-05  7071   0.983E-03    0.215E-02
RMM:   7    -0.111982860785E+04   -0.20453E-05   -0.21910E-05  6810   0.625E-03    0.125E-02
RMM:   8    -0.111982860870E+04   -0.85973E-06   -0.13400E-05  6590   0.573E-03
  15 F= -.11198286E+04 E0= -.11198286E+04  d E =-.237627E-02  mag=    40.0000
       N       E                     dE             d eps       ncg     rms          rms(c)
DAV:   1    -0.111982681754E+04    0.17903E-02   -0.14867E+00 12288   0.140E+00    0.324E-01
RMM:   2    -0.111983052414E+04   -0.37066E-02   -0.36973E-02 12492   0.244E-01    0.211E-01
RMM:   3    -0.111983059096E+04   -0.66823E-04   -0.19126E-03 12223   0.801E-02    0.131E-01
RMM:   4    -0.111983049703E+04    0.93926E-04   -0.46105E-04 10537   0.247E-02    0.716E-02
RMM:   5    -0.111983047740E+04    0.19635E-04   -0.13019E-04  7310   0.158E-02    0.367E-02
RMM:   6    -0.111983048183E+04   -0.44285E-05   -0.39530E-05  7101   0.996E-03    0.243E-02
RMM:   7    -0.111983048395E+04   -0.21270E-05   -0.21904E-05  6844   0.636E-03    0.138E-02
RMM:   8    -0.111983048482E+04   -0.87045E-06   -0.13383E-05  6639   0.581E-03
  16 F= -.11198305E+04 E0= -.11198305E+04  d E =-.187612E-02  mag=    40.0000
