<?xml version="1.0" encoding="ISO-8859-1"?>
<modeling>
 <generator>
  <i name="program" type="string">vasp </i>
  <i name="version" type="string">5.4.1  </i>
  <i name="subversion" type="string">05Feb16 (build Jan 25 2017 20:16:33) complex                          parallel </i>
  <i name="platform" type="string">BWXE6 </i>
  <i name="date" type="string">2019 06 22 </i>
  <i name="time" type="string">03:06:38 </i>
 </generator>
 <incar>
  <i type="string" name="SYSTEM"> STF</i>
  <i type="string" name="PREC">normal</i>
  <i type="string" name="ALGO"> Fast</i>
  <i type="int" name="ISPIN">     2</i>
  <i type="int" name="NELM">    40</i>
  <i type="int" name="NELMIN">     8</i>
  <i type="int" name="IBRION">     2</i>
  <i name="EDIFF">      0.00010000</i>
  <i name="EDIFFG">     -0.03000000</i>
  <i type="int" name="NSW">    30</i>
  <i type="int" name="ISIF">     3</i>
  <i name="ENCUT">    520.00000000</i>
  <i type="int" name="NBANDS">   768</i>
  <v name="MAGMOM">      0.60000000      0.60000000      0.60000000      0.60000000      0.60000000      0.60000000      0.60000000      0.60000000      0.60000000      0.60000000      0.60000000      0.60000000      0.60000000      0.60000000      0.60000000      0.60000000      0.60000000      0.60000000      0.60000000      0.60000000
      0.60000000      0.60000000      0.60000000      0.60000000      0.60000000      0.60000000      0.60000000      0.60000000      0.60000000      0.60000000      0.60000000      0.60000000      0.60000000      0.60000000      0.60000000      0.60000000      0.60000000      0.60000000      0.60000000      0.60000000
      0.60000000      0.60000000      0.60000000      0.60000000      0.60000000      0.60000000      0.60000000      0.60000000      0.60000000      0.60000000      0.60000000      0.60000000      0.60000000      0.60000000      0.60000000      0.60000000      5.00000000      5.00000000      5.00000000      5.00000000
      5.00000000      5.00000000      5.00000000      5.00000000      0.60000000      0.60000000      0.60000000      0.60000000      0.60000000      0.60000000      0.60000000      0.60000000      0.60000000      0.60000000      0.60000000      0.60000000      0.60000000      0.60000000      0.60000000      0.60000000
      0.60000000      0.60000000      0.60000000      0.60000000      0.60000000      0.60000000      0.60000000      0.60000000      0.60000000      0.60000000      0.60000000      0.60000000      0.60000000      0.60000000      0.60000000      0.60000000      0.60000000      0.60000000      0.60000000      0.60000000
      0.60000000      0.60000000      0.60000000      0.60000000      0.60000000      0.60000000      0.60000000      0.60000000      0.60000000      0.60000000      0.60000000      0.60000000      0.60000000      0.60000000      0.60000000      0.60000000      0.60000000      0.60000000      0.60000000      0.60000000
      0.60000000      0.60000000      0.60000000      0.60000000      0.60000000      0.60000000      0.60000000      0.60000000      0.60000000      0.60000000      0.60000000      0.60000000      0.60000000      0.60000000      0.60000000      0.60000000      0.60000000      0.60000000      0.60000000      0.60000000
      0.60000000      0.60000000      0.60000000      0.60000000      0.60000000      0.60000000      0.60000000      0.60000000      0.60000000      0.60000000      0.60000000      0.60000000      0.60000000      0.60000000      0.60000000      0.60000000</v>
  <i type="string" name="LREAL"> Auto</i>
  <i type="int" name="ISMEAR">     0</i>
  <i name="SIGMA">      0.05000000</i>
  <i type="int" name="LMAXMIX">     4</i>
  <v type="int" name="KPOINT_BSE">    -1     0     0     0</v>
  <i type="int" name="NELM">    40</i>
  <i type="logical" name="LDAU"> T  </i>
  <v type="int" name="LDAUTYPE">     2</v>
  <v type="int" name="LDAUL">     0     2     2     0</v>
  <v name="LDAUU">      0.00000000      3.00000000      5.00000000      0.00000000</v>
  <v name="LDAUJ">      0.00000000      0.00000000      0.00000000      0.00000000</v>
  <i type="int" name="LDAUPRINT">     1</i>
 </incar>
 <kpoints>
  <generation param="Monkhorst-Pack">
   <v type="int" name="divisions">       2        2        2 </v>
   <v name="usershift">      0.00000000       0.00000000       0.00000000 </v>
   <v name="genvec1">      0.50000000      -0.00000000       0.00000000 </v>
   <v name="genvec2">      0.00000000       0.50000000      -0.00000000 </v>
   <v name="genvec3">      0.00000000       0.00000000       0.50000000 </v>
   <v name="shift">      0.50000000       0.50000000       0.50000000 </v>
  </generation>
  <varray name="kpointlist" >
   <v>       0.25000000       0.25000000       0.25000000 </v>
   <v>      -0.25000000       0.25000000       0.25000000 </v>
   <v>       0.25000000      -0.25000000       0.25000000 </v>
   <v>      -0.25000000      -0.25000000       0.25000000 </v>
  </varray>
  <varray name="weights" >
   <v>       0.25000000 </v>
   <v>       0.25000000 </v>
   <v>       0.25000000 </v>
   <v>       0.25000000 </v>
  </varray>
 </kpoints>
 <parameters>
  <separator name="general" >
   <i type="string" name="SYSTEM">STF</i>
   <i type="logical" name="LCOMPAT"> F  </i>
  </separator>
  <separator name="electronic" >
   <i type="string" name="PREC">normal</i>
   <i name="ENMAX">    520.00000000</i>
   <i name="ENAUG">    605.39200000</i>
   <i name="EDIFF">      0.00010000</i>
   <i type="int" name="IALGO">    68</i>
   <i type="int" name="IWAVPR">    11</i>
   <i type="int" name="NBANDS">   768</i>
   <i name="NELECT">   1032.00000000</i>
   <i type="int" name="TURBO">     0</i>
   <i type="int" name="IRESTART">     0</i>
   <i type="int" name="NREBOOT">     0</i>
   <i type="int" name="NMIN">     0</i>
   <i name="EREF">      0.00000000</i>
   <separator name="electronic smearing" >
    <i type="int" name="ISMEAR">     0</i>
    <i name="SIGMA">      0.05000000</i>
    <i name="KSPACING">      0.50000000</i>
    <i type="logical" name="KGAMMA"> T  </i>
   </separator>
   <separator name="electronic projectors" >
    <i type="logical" name="LREAL"> T  </i>
    <v name="ROPT">     -0.00050000     -0.00050000     -0.00050000     -0.00050000</v>
    <i type="int" name="LMAXPAW">  -100</i>
    <i type="int" name="LMAXMIX">     4</i>
    <i type="logical" name="NLSPLINE"> F  </i>
   </separator>
   <separator name="electronic startup" >
    <i type="int" name="ISTART">     1</i>
    <i type="int" name="ICHARG">     0</i>
    <i type="int" name="INIWAV">     1</i>
   </separator>
   <separator name="electronic spin" >
    <i type="int" name="ISPIN">     2</i>
    <i type="logical" name="LNONCOLLINEAR"> F  </i>
    <v name="MAGMOM">      0.60000000      0.60000000      0.60000000      0.60000000      0.60000000      0.60000000      0.60000000      0.60000000      0.60000000      0.60000000      0.60000000      0.60000000      0.60000000      0.60000000      0.60000000      0.60000000      0.60000000      0.60000000      0.60000000      0.60000000
      0.60000000      0.60000000      0.60000000      0.60000000      0.60000000      0.60000000      0.60000000      0.60000000      0.60000000      0.60000000      0.60000000      0.60000000      0.60000000      0.60000000      0.60000000      0.60000000      0.60000000      0.60000000      0.60000000      0.60000000
      0.60000000      0.60000000      0.60000000      0.60000000      0.60000000      0.60000000      0.60000000      0.60000000      0.60000000      0.60000000      0.60000000      0.60000000      0.60000000      0.60000000      0.60000000      0.60000000      5.00000000      5.00000000      5.00000000      5.00000000
      5.00000000      5.00000000      5.00000000      5.00000000      0.60000000      0.60000000      0.60000000      0.60000000      0.60000000      0.60000000      0.60000000      0.60000000      0.60000000      0.60000000      0.60000000      0.60000000      0.60000000      0.60000000      0.60000000      0.60000000
      0.60000000      0.60000000      0.60000000      0.60000000      0.60000000      0.60000000      0.60000000      0.60000000      0.60000000      0.60000000      0.60000000      0.60000000      0.60000000      0.60000000      0.60000000      0.60000000      0.60000000      0.60000000      0.60000000      0.60000000
      0.60000000      0.60000000      0.60000000      0.60000000      0.60000000      0.60000000      0.60000000      0.60000000      0.60000000      0.60000000      0.60000000      0.60000000      0.60000000      0.60000000      0.60000000      0.60000000      0.60000000      0.60000000      0.60000000      0.60000000
      0.60000000      0.60000000      0.60000000      0.60000000      0.60000000      0.60000000      0.60000000      0.60000000      0.60000000      0.60000000      0.60000000      0.60000000      0.60000000      0.60000000      0.60000000      0.60000000      0.60000000      0.60000000      0.60000000      0.60000000
      0.60000000      0.60000000      0.60000000      0.60000000      0.60000000      0.60000000      0.60000000      0.60000000      0.60000000      0.60000000      0.60000000      0.60000000      0.60000000      0.60000000      0.60000000      0.60000000</v>
    <i name="NUPDOWN">     -1.00000000</i>
    <i type="logical" name="LSORBIT"> F  </i>
    <v name="SAXIS">      0.00000000      0.00000000      1.00000000</v>
    <i type="logical" name="LSPIRAL"> F  </i>
    <v name="QSPIRAL">      0.00000000      0.00000000      0.00000000</v>
    <i type="logical" name="LZEROZ"> F  </i>
   </separator>
   <separator name="electronic exchange-correlation" >
    <i type="logical" name="LASPH"> F  </i>
    <i type="logical" name="LMETAGGA"> F  </i>
   </separator>
   <separator name="electronic convergence" >
    <i type="int" name="NELM">    40</i>
    <i type="int" name="NELMDL">     0</i>
    <i type="int" name="NELMIN">     8</i>
    <i name="ENINI">    520.00000000</i>
    <separator name="electronic convergence detail" >
     <i type="logical" name="LDIAG"> T  </i>
     <i type="logical" name="LSUBROT"> F  </i>
     <i name="WEIMIN">      0.00100000</i>
     <i name="EBREAK">      0.00000003</i>
     <i name="DEPER">      0.30000000</i>
     <i type="int" name="NRMM">     4</i>
     <i name="TIME">      0.40000000</i>
    </separator>
   </separator>
   <separator name="electronic mixer" >
    <i name="AMIX">      0.40000000</i>
    <i name="BMIX">      1.00000000</i>
    <i name="AMIN">      0.10000000</i>
    <i name="AMIX_MAG">      1.60000000</i>
    <i name="BMIX_MAG">      1.00000000</i>
    <separator name="electronic mixer details" >
     <i type="int" name="IMIX">     4</i>
     <i type="logical" name="MIXFIRST"> F  </i>
     <i type="int" name="MAXMIX">   -45</i>
     <i name="WC">    100.00000000</i>
     <i type="int" name="INIMIX">     1</i>
     <i type="int" name="MIXPRE">     1</i>
     <i type="int" name="MREMOVE">     5</i>
    </separator>
   </separator>
   <separator name="electronic dipolcorrection" >
    <i type="logical" name="LDIPOL"> F  </i>
    <i type="logical" name="LMONO"> F  </i>
    <i type="int" name="IDIPOL">     0</i>
    <i name="EPSILON">      1.00000000</i>
    <v name="DIPOL">   -100.00000000   -100.00000000   -100.00000000</v>
    <i name="EFIELD">      0.00000000</i>
   </separator>
  </separator>
  <separator name="grids" >
   <i type="int" name="NGX">    64</i>
   <i type="int" name="NGY">    64</i>
   <i type="int" name="NGZ">    90</i>
   <i type="int" name="NGXF">   128</i>
   <i type="int" name="NGYF">   128</i>
   <i type="int" name="NGZF">   180</i>
   <i type="logical" name="ADDGRID"> F  </i>
  </separator>
  <separator name="ionic" >
   <i type="int" name="NSW">    30</i>
   <i type="int" name="IBRION">     2</i>
   <i type="int" name="ISIF">     3</i>
   <i name="PSTRESS">      0.00000000</i>
   <i name="EDIFFG">     -0.03000000</i>
   <i type="int" name="NFREE">     1</i>
   <i name="POTIM">      0.50000000</i>
   <i name="SMASS">     -3.00000000</i>
   <i name="SCALEE">      1.00000000</i>
  </separator>
  <separator name="ionic md" >
   <i name="TEBEG">      0.00010000</i>
   <i name="TEEND">      0.00010000</i>
   <i type="int" name="NBLOCK">     1</i>
   <i type="int" name="KBLOCK">    30</i>
   <i type="int" name="NPACO">   256</i>
   <i name="APACO">     16.00000000</i>
  </separator>
  <separator name="symmetry" >
   <i type="int" name="ISYM">     2</i>
   <i name="SYMPREC">      0.00001000</i>
  </separator>
  <separator name="dos" >
   <i type="logical" name="LORBIT"> F  </i>
   <v name="RWIGS">     -1.00000000     -1.00000000     -1.00000000     -1.00000000</v>
   <i type="int" name="NEDOS">   301</i>
   <i name="EMIN">     10.00000000</i>
   <i name="EMAX">    -10.00000000</i>
   <i name="EFERMI">      0.00000000</i>
  </separator>
  <separator name="writing" >
   <i type="int" name="NWRITE">     2</i>
   <i type="logical" name="LWAVE"> T  </i>
   <i type="logical" name="LCHARG"> T  </i>
   <i type="logical" name="LPARD"> F  </i>
   <i type="logical" name="LVTOT"> F  </i>
   <i type="logical" name="LVHAR"> F  </i>
   <i type="logical" name="LELF"> F  </i>
   <i type="logical" name="LOPTICS"> F  </i>
   <v name="STM">      0.00000000      0.00000000      0.00000000      0.00000000      0.00000000      0.00000000      0.00000000</v>
  </separator>
  <separator name="performance" >
   <i type="int" name="NPAR">     2</i>
   <i type="int" name="NSIM">     4</i>
   <i type="int" name="NBLK">    -1</i>
   <i type="logical" name="LPLANE"> T  </i>
   <i type="logical" name="LSCALAPACK"> T  </i>
   <i type="logical" name="LSCAAWARE"> F  </i>
   <i type="logical" name="LSCALU"> F  </i>
   <i type="logical" name="LASYNC"> F  </i>
   <i type="logical" name="LORBITALREAL"> F  </i>
  </separator>
  <separator name="miscellaneous" >
   <i type="int" name="IDIOT">     3</i>
   <i type="logical" name="LMUSIC"> F  </i>
   <v name="POMASS">     87.62000000     47.88000000     55.84700000     16.00000000</v>
   <v name="DARWINR">      0.00000000      0.00000000      0.00000000      0.00000000</v>
   <v name="DARWINV">      1.00000000      1.00000000      1.00000000      1.00000000</v>
   <i type="logical" name="LCORR"> T  </i>
  </separator>
  <i type="logical" name="GGA_COMPAT"> T  </i>
  <i type="logical" name="LBERRY"> F  </i>
  <i type="int" name="ICORELEVEL">     0</i>
  <i type="logical" name="LDAU"> T  </i>
  <v type="int" name="LDAUTYPE">     2</v>
  <v type="int" name="LDAUL">     0</v>
  <v name="LDAUU">      0.00000000</v>
  <v name="LDAUJ">      0.00000000</v>
  <i type="int" name="LDAUPRINT">     1</i>
  <i type="int" name="I_CONSTRAINED_M">     0</i>
  <separator name="electronic exchange-correlation" >
   <i type="string" name="GGA">--</i>
   <i type="int" name="VOSKOWN">     0</i>
   <i type="logical" name="LHFCALC"> F  </i>
   <i type="string" name="PRECFOCK"></i>
   <i type="logical" name="LSYMGRAD"> F  </i>
   <i type="logical" name="LHFONE"> F  </i>
   <i type="logical" name="LRHFCALC"> F  </i>
   <i type="logical" name="LTHOMAS"> F  </i>
   <i type="logical" name="LMODELHF"> F  </i>
   <i name="ENCUT4O">     -1.00000000</i>
   <i type="int" name="EXXOEP">     0</i>
   <i type="int" name="FOURORBIT">     0</i>
   <i name="AEXX">      0.00000000</i>
   <i name="HFALPHA">      0.00000000</i>
   <i name="MCALPHA">      0.00000000</i>
   <i name="ALDAX">      1.00000000</i>
   <i name="AGGAX">      1.00000000</i>
   <i name="ALDAC">      1.00000000</i>
   <i name="AGGAC">      1.00000000</i>
   <i type="int" name="NKREDX">     1</i>
   <i type="int" name="NKREDY">     1</i>
   <i type="int" name="NKREDZ">     1</i>
   <i type="logical" name="SHIFTRED"> F  </i>
   <i type="logical" name="ODDONLY"> F  </i>
   <i type="logical" name="EVENONLY"> F  </i>
   <i type="int" name="LMAXFOCK">     0</i>
   <i type="int" name="NMAXFOCKAE">     0</i>
   <i type="logical" name="LFOCKAEDFT"> F  </i>
   <i name="HFSCREEN">      0.00000000</i>
   <i name="HFSCREENC">      0.00000000</i>
   <i type="int" name="NBANDSGWLOW">     0</i>
  </separator>
  <separator name="vdW DFT" >
   <i type="logical" name="LUSE_VDW"> F  </i>
   <i name="Zab_VDW">     -0.84910000</i>
   <i name="PARAM1">      0.12340000</i>
   <i name="PARAM2">      1.00000000</i>
   <i name="PARAM3">      0.00000000</i>
  </separator>
  <separator name="model GW" >
   <i type="int" name="MODEL_GW">     0</i>
   <i name="MODEL_EPS0">      7.70628972</i>
   <i name="MODEL_ALPHA">      1.00000000</i>
  </separator>
  <separator name="linear response parameters" >
   <i type="logical" name="LEPSILON"> F  </i>
   <i type="logical" name="LRPA"> F  </i>
   <i type="logical" name="LNABLA"> F  </i>
   <i type="logical" name="LVEL"> F  </i>
   <i type="int" name="KINTER">     0</i>
   <i name="CSHIFT">      0.10000000</i>
   <i name="OMEGAMAX">     -1.00000000</i>
   <i name="DEG_THRESHOLD">      0.00200000</i>
  </separator>
  <separator name="orbital magnetization" >
   <i type="logical" name="NUCIND"> F  </i>
   <v name="MAGPOS">      0.00000000      0.00000000      0.00000000</v>
   <i type="logical" name="LNICSALL"> T  </i>
   <i type="logical" name="ORBITALMAG"> F  </i>
   <i type="logical" name="LMAGBLOCH"> F  </i>
   <i type="logical" name="LCHIMAG"> F  </i>
   <i type="logical" name="LGAUGE"> T  </i>
   <i type="int" name="MAGATOM">     0</i>
   <v name="MAGDIPOL">      0.00000000      0.00000000      0.00000000</v>
   <v name="AVECCONST">      0.00000000      0.00000000      0.00000000</v>
  </separator>
  <separator name="response functions" >
   <i type="logical" name="LADDER"> F  </i>
   <i type="logical" name="LFXC"> F  </i>
   <i type="logical" name="LHARTREE"> T  </i>
   <i type="int" name="IBSE">     0</i>
   <v type="int" name="KPOINT">    -1     0     0     0</v>
   <i type="logical" name="LTCTE"> F  </i>
   <i type="logical" name="LTETE"> F  </i>
   <i type="logical" name="LTRIPLET"> F  </i>
   <i type="logical" name="LFXCEPS"> F  </i>
   <i type="logical" name="LFXHEG"> F  </i>
   <i type="int" name="NATURALO">     0</i>
   <i type="logical" name="L2ORDER"> F  </i>
   <i type="logical" name="LUSEW"> F  </i>
   <i name="ENCUTGW">     -2.00000000</i>
   <i name="ENCUTGWSOFT">     -2.00000000</i>
   <i name="ENCUTLF">     -1.00000000</i>
   <i type="int" name="LMAXMP2">    -1</i>
   <i name="SCISSOR">      0.00000000</i>
   <i type="int" name="NOMEGA">     0</i>
   <i type="int" name="NOMEGAR">     0</i>
   <i type="int" name="NBANDSGW">    -1</i>
   <i type="int" name="NBANDSO">    -1</i>
   <i type="int" name="NBANDSV">    -1</i>
   <i type="int" name="NELM">    40</i>
   <i type="int" name="NELMHF">     1</i>
   <i type="int" name="DIM">     3</i>
   <i type="int" name="ANTIRES">     0</i>
   <i name="OMEGAMAX">    -30.00000000</i>
   <i name="OMEGAMIN">    -30.00000000</i>
   <i name="OMEGATL">   -200.00000000</i>
   <i type="int" name="OMEGAGRID">     0</i>
   <i name="CSHIFT">     -0.10000000</i>
   <i type="logical" name="SELFENERGY"> F  </i>
   <i type="logical" name="LSPECTRAL"> F  </i>
   <i type="logical" name="LSPECTRALGW"> F  </i>
   <i type="logical" name="LSINGLES"> F  </i>
   <i type="logical" name="LFERMIGW"> F  </i>
   <i type="logical" name="ODDONLYGW"> F  </i>
   <i type="logical" name="EVENONLYGW"> F  </i>
   <i type="int" name="NKREDLFX">     1</i>
   <i type="int" name="NKREDLFY">     1</i>
   <i type="int" name="NKREDLFZ">     1</i>
   <i type="int" name="MAXMEM">  1800</i>
   <i type="int" name="TELESCOPE">     0</i>
   <i type="int" name="TAUPAR">     1</i>
   <i type="int" name="OMEGAPAR">    -1</i>
   <i name="LAMBDA">      1.00000000</i>
  </separator>
  <separator name="External order field" >
   <i name="OFIELD_KAPPA">      0.00000000</i>
   <v name="OFIELD_K">      0.00000000      0.00000000      0.00000000</v>
   <i name="OFIELD_Q6_NEAR">      0.00000000</i>
   <i name="OFIELD_Q6_FAR">      0.00000000</i>
   <i name="OFIELD_A">      0.00000000</i>
  </separator>
 </parameters>
 <atominfo>
  <atoms>     156 </atoms>
  <types>       4 </types>
  <array name="atoms" >
   <dimension dim="1">ion</dimension>
   <field type="string">element</field>
   <field type="int">atomtype</field>
   <set>
    <rc><c>Sr</c><c>   1</c></rc>
    <rc><c>Sr</c><c>   1</c></rc>
    <rc><c>Sr</c><c>   1</c></rc>
    <rc><c>Sr</c><c>   1</c></rc>
    <rc><c>Sr</c><c>   1</c></rc>
    <rc><c>Sr</c><c>   1</c></rc>
    <rc><c>Sr</c><c>   1</c></rc>
    <rc><c>Sr</c><c>   1</c></rc>
    <rc><c>Sr</c><c>   1</c></rc>
    <rc><c>Sr</c><c>   1</c></rc>
    <rc><c>Sr</c><c>   1</c></rc>
    <rc><c>Sr</c><c>   1</c></rc>
    <rc><c>Sr</c><c>   1</c></rc>
    <rc><c>Sr</c><c>   1</c></rc>
    <rc><c>Sr</c><c>   1</c></rc>
    <rc><c>Sr</c><c>   1</c></rc>
    <rc><c>Sr</c><c>   1</c></rc>
    <rc><c>Sr</c><c>   1</c></rc>
    <rc><c>Sr</c><c>   1</c></rc>
    <rc><c>Sr</c><c>   1</c></rc>
    <rc><c>Sr</c><c>   1</c></rc>
    <rc><c>Sr</c><c>   1</c></rc>
    <rc><c>Sr</c><c>   1</c></rc>
    <rc><c>Sr</c><c>   1</c></rc>
    <rc><c>Sr</c><c>   1</c></rc>
    <rc><c>Sr</c><c>   1</c></rc>
    <rc><c>Sr</c><c>   1</c></rc>
    <rc><c>Sr</c><c>   1</c></rc>
    <rc><c>Sr</c><c>   1</c></rc>
    <rc><c>Sr</c><c>   1</c></rc>
    <rc><c>Sr</c><c>   1</c></rc>
    <rc><c>Sr</c><c>   1</c></rc>
    <rc><c>Ti</c><c>   2</c></rc>
    <rc><c>Ti</c><c>   2</c></rc>
    <rc><c>Ti</c><c>   2</c></rc>
    <rc><c>Ti</c><c>   2</c></rc>
    <rc><c>Ti</c><c>   2</c></rc>
    <rc><c>Ti</c><c>   2</c></rc>
    <rc><c>Ti</c><c>   2</c></rc>
    <rc><c>Ti</c><c>   2</c></rc>
    <rc><c>Ti</c><c>   2</c></rc>
    <rc><c>Ti</c><c>   2</c></rc>
    <rc><c>Ti</c><c>   2</c></rc>
    <rc><c>Ti</c><c>   2</c></rc>
    <rc><c>Ti</c><c>   2</c></rc>
    <rc><c>Ti</c><c>   2</c></rc>
    <rc><c>Ti</c><c>   2</c></rc>
    <rc><c>Ti</c><c>   2</c></rc>
    <rc><c>Ti</c><c>   2</c></rc>
    <rc><c>Ti</c><c>   2</c></rc>
    <rc><c>Ti</c><c>   2</c></rc>
    <rc><c>Ti</c><c>   2</c></rc>
    <rc><c>Ti</c><c>   2</c></rc>
    <rc><c>Ti</c><c>   2</c></rc>
    <rc><c>Ti</c><c>   2</c></rc>
    <rc><c>Ti</c><c>   2</c></rc>
    <rc><c>Fe</c><c>   3</c></rc>
    <rc><c>Fe</c><c>   3</c></rc>
    <rc><c>Fe</c><c>   3</c></rc>
    <rc><c>Fe</c><c>   3</c></rc>
    <rc><c>Fe</c><c>   3</c></rc>
    <rc><c>Fe</c><c>   3</c></rc>
    <rc><c>Fe</c><c>   3</c></rc>
    <rc><c>Fe</c><c>   3</c></rc>
    <rc><c>O </c><c>   4</c></rc>
    <rc><c>O </c><c>   4</c></rc>
    <rc><c>O </c><c>   4</c></rc>
    <rc><c>O </c><c>   4</c></rc>
    <rc><c>O </c><c>   4</c></rc>
    <rc><c>O </c><c>   4</c></rc>
    <rc><c>O </c><c>   4</c></rc>
    <rc><c>O </c><c>   4</c></rc>
    <rc><c>O </c><c>   4</c></rc>
    <rc><c>O </c><c>   4</c></rc>
    <rc><c>O </c><c>   4</c></rc>
    <rc><c>O </c><c>   4</c></rc>
    <rc><c>O </c><c>   4</c></rc>
    <rc><c>O </c><c>   4</c></rc>
    <rc><c>O </c><c>   4</c></rc>
    <rc><c>O </c><c>   4</c></rc>
    <rc><c>O </c><c>   4</c></rc>
    <rc><c>O </c><c>   4</c></rc>
    <rc><c>O </c><c>   4</c></rc>
    <rc><c>O </c><c>   4</c></rc>
    <rc><c>O </c><c>   4</c></rc>
    <rc><c>O </c><c>   4</c></rc>
    <rc><c>O </c><c>   4</c></rc>
    <rc><c>O </c><c>   4</c></rc>
    <rc><c>O </c><c>   4</c></rc>
    <rc><c>O </c><c>   4</c></rc>
    <rc><c>O </c><c>   4</c></rc>
    <rc><c>O </c><c>   4</c></rc>
    <rc><c>O </c><c>   4</c></rc>
    <rc><c>O </c><c>   4</c></rc>
    <rc><c>O </c><c>   4</c></rc>
    <rc><c>O </c><c>   4</c></rc>
    <rc><c>O </c><c>   4</c></rc>
    <rc><c>O </c><c>   4</c></rc>
    <rc><c>O </c><c>   4</c></rc>
    <rc><c>O </c><c>   4</c></rc>
    <rc><c>O </c><c>   4</c></rc>
    <rc><c>O </c><c>   4</c></rc>
    <rc><c>O </c><c>   4</c></rc>
    <rc><c>O </c><c>   4</c></rc>
    <rc><c>O </c><c>   4</c></rc>
    <rc><c>O </c><c>   4</c></rc>
    <rc><c>O </c><c>   4</c></rc>
    <rc><c>O </c><c>   4</c></rc>
    <rc><c>O </c><c>   4</c></rc>
    <rc><c>O </c><c>   4</c></rc>
    <rc><c>O </c><c>   4</c></rc>
    <rc><c>O </c><c>   4</c></rc>
    <rc><c>O </c><c>   4</c></rc>
    <rc><c>O </c><c>   4</c></rc>
    <rc><c>O </c><c>   4</c></rc>
    <rc><c>O </c><c>   4</c></rc>
    <rc><c>O </c><c>   4</c></rc>
    <rc><c>O </c><c>   4</c></rc>
    <rc><c>O </c><c>   4</c></rc>
    <rc><c>O </c><c>   4</c></rc>
    <rc><c>O </c><c>   4</c></rc>
    <rc><c>O </c><c>   4</c></rc>
    <rc><c>O </c><c>   4</c></rc>
    <rc><c>O </c><c>   4</c></rc>
    <rc><c>O </c><c>   4</c></rc>
    <rc><c>O </c><c>   4</c></rc>
    <rc><c>O </c><c>   4</c></rc>
    <rc><c>O </c><c>   4</c></rc>
    <rc><c>O </c><c>   4</c></rc>
    <rc><c>O </c><c>   4</c></rc>
    <rc><c>O </c><c>   4</c></rc>
    <rc><c>O </c><c>   4</c></rc>
    <rc><c>O </c><c>   4</c></rc>
    <rc><c>O </c><c>   4</c></rc>
    <rc><c>O </c><c>   4</c></rc>
    <rc><c>O </c><c>   4</c></rc>
    <rc><c>O </c><c>   4</c></rc>
    <rc><c>O </c><c>   4</c></rc>
    <rc><c>O </c><c>   4</c></rc>
    <rc><c>O </c><c>   4</c></rc>
    <rc><c>O </c><c>   4</c></rc>
    <rc><c>O </c><c>   4</c></rc>
    <rc><c>O </c><c>   4</c></rc>
    <rc><c>O </c><c>   4</c></rc>
    <rc><c>O </c><c>   4</c></rc>
    <rc><c>O </c><c>   4</c></rc>
    <rc><c>O </c><c>   4</c></rc>
    <rc><c>O </c><c>   4</c></rc>
    <rc><c>O </c><c>   4</c></rc>
    <rc><c>O </c><c>   4</c></rc>
    <rc><c>O </c><c>   4</c></rc>
    <rc><c>O </c><c>   4</c></rc>
    <rc><c>O </c><c>   4</c></rc>
    <rc><c>O </c><c>   4</c></rc>
    <rc><c>O </c><c>   4</c></rc>
    <rc><c>O </c><c>   4</c></rc>
   </set>
  </array>
  <array name="atomtypes" >
   <dimension dim="1">type</dimension>
   <field type="int">atomspertype</field>
   <field type="string">element</field>
   <field>mass</field>
   <field>valence</field>
   <field type="string">pseudopotential</field>
   <set>
    <rc><c>  32</c><c>Sr</c><c>     87.62000000</c><c>     10.00000000</c><c>  PAW_PBE Sr_sv 07Sep2000               </c></rc>
    <rc><c>  24</c><c>Ti</c><c>     47.88000000</c><c>      4.00000000</c><c>  PAW_PBE Ti 08Apr2002                  </c></rc>
    <rc><c>   8</c><c>Fe</c><c>     55.84700000</c><c>      8.00000000</c><c>  PAW_PBE Fe 06Sep2000                  </c></rc>
    <rc><c>  92</c><c>O </c><c>     16.00000000</c><c>      6.00000000</c><c>  PAW_PBE O 08Apr2002                   </c></rc>
   </set>
  </array>
 </atominfo>
 <structure name="initialpos" >
  <crystal>
   <varray name="basis" >
    <v>      11.22129196       0.01725281      -0.00101606 </v>
    <v>       0.01724649      11.21862090      -0.00121026 </v>
    <v>      -0.00148922      -0.00175617      15.91612645 </v>
   </varray>
   <i name="volume">   2003.63532704 </i>
   <varray name="rec_basis" >
    <v>       0.08911651      -0.00013700       0.00000832 </v>
    <v>      -0.00013705       0.08913773       0.00000982 </v>
    <v>       0.00000568       0.00000677       0.06282936 </v>
   </varray>
  </crystal>
  <varray name="positions" >
   <v>       0.00046115       0.25650581       0.12352117 </v>
   <v>       0.00543565       0.25074564       0.62009889 </v>
   <v>       0.99916951       0.74123366       0.11819894 </v>
   <v>       0.99814926       0.74754995       0.62393563 </v>
   <v>       0.50081736       0.24911447       0.12443688 </v>
   <v>       0.49636376       0.24853419       0.61847331 </v>
   <v>       0.50207716       0.75398807       0.11880168 </v>
   <v>       0.50178543       0.75262247       0.62889409 </v>
   <v>       0.99871589       0.25386352       0.37599737 </v>
   <v>       0.00530819       0.25189143       0.87986115 </v>
   <v>       0.99338902       0.73939374       0.37765448 </v>
   <v>       0.99566834       0.74978184       0.87759268 </v>
   <v>       0.50442364       0.24583158       0.37702377 </v>
   <v>       0.49500731       0.25189823       0.88096115 </v>
   <v>       0.50624747       0.75349612       0.37211643 </v>
   <v>       0.50286959       0.75177507       0.87872982 </v>
   <v>       0.25849158       0.00413690       0.12095706 </v>
   <v>       0.25363787       0.00622889       0.62404102 </v>
   <v>       0.24724953       0.49609201       0.12169838 </v>
   <v>       0.24576180       0.49518188       0.62488970 </v>
   <v>       0.74743886       0.00075353       0.12223351 </v>
   <v>       0.74723905       0.00145675       0.62338699 </v>
   <v>       0.75566156       0.49866867       0.12336137 </v>
   <v>       0.75400652       0.49881606       0.62613099 </v>
   <v>       0.25885590       0.00937720       0.37396396 </v>
   <v>       0.25176378       0.00460508       0.87650532 </v>
   <v>       0.24341038       0.49025647       0.37556122 </v>
   <v>       0.24792275       0.49933661       0.87732003 </v>
   <v>       0.74576435       0.00859326       0.37523079 </v>
   <v>       0.74728830       0.99712069       0.87955624 </v>
   <v>       0.75798009       0.49128369       0.37316043 </v>
   <v>       0.75054452       0.50687494       0.87904595 </v>
   <v>       0.00000105       0.99823142       0.00320715 </v>
   <v>       0.00298264       0.00132609       0.49603805 </v>
   <v>       0.49888657       0.50052432       0.00178689 </v>
   <v>       0.25047433       0.25060476       0.00076805 </v>
   <v>       0.24948242       0.24922284       0.49886840 </v>
   <v>       0.25005847       0.75050656       0.99623174 </v>
   <v>       0.25074836       0.74983679       0.50933866 </v>
   <v>       0.74938330       0.24937947       0.00013812 </v>
   <v>       0.74820967       0.25006841       0.50133027 </v>
   <v>       0.75151068       0.75165373       0.00253995 </v>
   <v>       0.75606029       0.76151160       0.49970129 </v>
   <v>       0.25317786       0.25209167       0.24994914 </v>
   <v>       0.25078786       0.24933764       0.74959971 </v>
   <v>       0.24945987       0.75072198       0.24191114 </v>
   <v>       0.24892368       0.74982527       0.75356488 </v>
   <v>       0.75202514       0.24834462       0.24795595 </v>
   <v>       0.76390491       0.25776899       0.75038813 </v>
   <v>       0.74842539       0.75065986       0.75039299 </v>
   <v>       0.00082665       0.99950345       0.74972190 </v>
   <v>       0.00046804       0.50183642       0.25037080 </v>
   <v>       0.00488918       0.50603937       0.75024825 </v>
   <v>       0.50375519       0.99982233       0.25037921 </v>
   <v>       0.50101426       0.50030469       0.25369989 </v>
   <v>       0.49976963       0.50136856       0.74846674 </v>
   <v>       0.00026602       0.49971416       0.99867580 </v>
   <v>       0.99839126       0.49691456       0.50027229 </v>
   <v>       0.50149376       0.00152380       0.99795396 </v>
   <v>       0.49961456       0.99946509       0.50017260 </v>
   <v>       0.48860568       0.49325200       0.49914671 </v>
   <v>       0.73640788       0.74065723       0.24861381 </v>
   <v>       0.01058972       0.01200318       0.25106084 </v>
   <v>       0.49101109       0.98767645       0.75009955 </v>
   <v>       0.11328646       0.14344677       0.24996598 </v>
   <v>       0.10668260       0.14225313       0.75034641 </v>
   <v>       0.11826626       0.63794922       0.26113304 </v>
   <v>       0.10684257       0.64629010       0.75089897 </v>
   <v>       0.61021115       0.14205729       0.24791587 </v>
   <v>       0.60495538       0.64020392       0.23986939 </v>
   <v>       0.60915704       0.63927557       0.75545662 </v>
   <v>       0.39054454       0.36423120       0.25908356 </v>
   <v>       0.38951585       0.36243408       0.74253551 </v>
   <v>       0.38195256       0.86095133       0.26227795 </v>
   <v>       0.38912893       0.85303823       0.75172436 </v>
   <v>       0.88701406       0.36455333       0.24897859 </v>
   <v>       0.89409235       0.35720022       0.74532158 </v>
   <v>       0.89260406       0.85540719       0.74499500 </v>
   <v>       0.36216209       0.11311857       0.24888924 </v>
   <v>       0.36401480       0.11531739       0.74905558 </v>
   <v>       0.35833513       0.61718659       0.26707210 </v>
   <v>       0.35650417       0.60780205       0.74784330 </v>
   <v>       0.85811568       0.10770557       0.24711125 </v>
   <v>       0.85138899       0.10429605       0.74948001 </v>
   <v>       0.87044706       0.62764759       0.25161190 </v>
   <v>       0.85782772       0.60604852       0.74928719 </v>
   <v>       0.13968906       0.38977590       0.24889078 </v>
   <v>       0.14250550       0.39270378       0.74935263 </v>
   <v>       0.13356737       0.87830794       0.26521138 </v>
   <v>       0.14453449       0.89304748       0.75001318 </v>
   <v>       0.63935431       0.39131628       0.24727996 </v>
   <v>       0.63575442       0.37966912       0.74926122 </v>
   <v>       0.64787456       0.89338438       0.25212561 </v>
   <v>       0.64473802       0.89194378       0.74752014 </v>
   <v>       0.36169017       0.38814385       0.99652131 </v>
   <v>       0.36071769       0.38597555       0.50261492 </v>
   <v>       0.36140057       0.88669175       0.99382321 </v>
   <v>       0.35410066       0.88623778       0.49264341 </v>
   <v>       0.86045622       0.38427031       0.99439325 </v>
   <v>       0.86468393       0.37792451       0.51067672 </v>
   <v>       0.86379345       0.88806402       0.99582559 </v>
   <v>       0.86102293       0.88678415       0.50652603 </v>
   <v>       0.13690637       0.11130883       0.00516117 </v>
   <v>       0.13617680       0.11012600       0.49298522 </v>
   <v>       0.14017161       0.61445719       0.00236281 </v>
   <v>       0.13747845       0.62175399       0.48406576 </v>
   <v>       0.63804025       0.11543228       0.00696789 </v>
   <v>       0.63878292       0.11310281       0.49639121 </v>
   <v>       0.63684017       0.61368112       0.00660109 </v>
   <v>       0.11372817       0.36052438       0.00150019 </v>
   <v>       0.11480771       0.36165232       0.49901562 </v>
   <v>       0.11244584       0.86086178       0.99916866 </v>
   <v>       0.11186308       0.85901303       0.48951536 </v>
   <v>       0.61132373       0.36420449       0.00194120 </v>
   <v>       0.61899411       0.37105288       0.50266256 </v>
   <v>       0.61456310       0.86182914       0.99843148 </v>
   <v>       0.60549780       0.84650411       0.50152603 </v>
   <v>       0.38542479       0.13843484       0.00160651 </v>
   <v>       0.38526250       0.13849721       0.49932759 </v>
   <v>       0.38858672       0.63951107       0.99904483 </v>
   <v>       0.38671939       0.64284596       0.48982203 </v>
   <v>       0.88895620       0.13640106       0.00193413 </v>
   <v>       0.88771314       0.13482184       0.50213260 </v>
   <v>       0.88545979       0.63769177       0.99888585 </v>
   <v>       0.86670881       0.62686818       0.49906205 </v>
   <v>       0.99538673       0.98009840       0.12976964 </v>
   <v>       0.00793761       0.99795191       0.62310349 </v>
   <v>       0.99959911       0.50311324       0.12713293 </v>
   <v>       0.00951129       0.50903146       0.62502464 </v>
   <v>       0.49405267       0.98930975       0.12803258 </v>
   <v>       0.50652164       0.00909896       0.62801288 </v>
   <v>       0.48455319       0.49917116       0.12680380 </v>
   <v>       0.51299994       0.51893663       0.62080428 </v>
   <v>       0.97851613       0.98963104       0.37249611 </v>
   <v>       0.00224044       0.99993519       0.87451692 </v>
   <v>       0.99269208       0.49221370       0.37447437 </v>
   <v>       0.00221587       0.49931680       0.87232335 </v>
   <v>       0.50279141       0.00298720       0.37398458 </v>
   <v>       0.51461661       0.01722177       0.86883768 </v>
   <v>       0.52420323       0.51209769       0.37884745 </v>
   <v>       0.50007340       0.49947356       0.87479612 </v>
   <v>       0.24987232       0.25054516       0.37461451 </v>
   <v>       0.24893689       0.24888217       0.87462497 </v>
   <v>       0.24788078       0.74567900       0.87429874 </v>
   <v>       0.75259649       0.25297815       0.37500063 </v>
   <v>       0.73767964       0.23816385       0.87109970 </v>
   <v>       0.74587683       0.74784705       0.37628796 </v>
   <v>       0.75091755       0.74856490       0.87446040 </v>
   <v>       0.25614534       0.25570094       0.12618330 </v>
   <v>       0.24337855       0.24478256       0.62390357 </v>
   <v>       0.25327788       0.75314094       0.12589849 </v>
   <v>       0.24570566       0.74697226       0.62530867 </v>
   <v>       0.75370980       0.25548255       0.12445391 </v>
   <v>       0.73235525       0.23320617       0.63107102 </v>
   <v>       0.76383262       0.76356965       0.12704493 </v>
   <v>       0.73702777       0.73395965       0.62221053 </v>
  </varray>
 </structure>
 <calculation>
  <scstep>
   <time name="dav">  596.67  596.70</time>
   <time name="total">  603.78  603.98</time>
   <energy>
    <i name="alphaZ">   5632.44028769 </i>
    <i name="ewald"> -61504.54941217 </i>
    <i name="hartreedc"> -16040.51191094 </i>
    <i name="XCdc">   2963.17756651 </i>
    <i name="pawpsdc"> 112771.74377751 </i>
    <i name="pawaedc">-111671.27318011 </i>
    <i name="eentropy">     -0.00000000 </i>
    <i name="bandstr">  -7054.27904910 </i>
    <i name="atom">  73783.44779670 </i>
    <i name="e_fr_energy">  -1119.80412392 </i>
    <i name="e_wo_entrp">  -1119.80412392 </i>
    <i name="e_0_energy">  -1119.80412392 </i>
   </energy>
  </scstep>
  <scstep>
   <time name="diag">   64.38   64.39</time>
   <time name="diis">   62.63   62.64</time>
   <time name="orth">   33.36   33.36</time>
   <time name="total">  167.58  167.63</time>
   <energy>
    <i name="e_fr_energy">  -1119.80412526 </i>
    <i name="e_wo_entrp">  -1119.80412526 </i>
    <i name="e_0_energy">  -1119.80412526 </i>
   </energy>
  </scstep>
  <scstep>
   <time name="diag">   64.40   64.40</time>
   <time name="diis">   59.05   59.06</time>
   <time name="orth">   33.43   33.43</time>
   <time name="total">  164.09  164.13</time>
   <energy>
    <i name="e_fr_energy">  -1119.80412577 </i>
    <i name="e_wo_entrp">  -1119.80412577 </i>
    <i name="e_0_energy">  -1119.80412577 </i>
   </energy>
  </scstep>
  <scstep>
   <time name="diag">   64.46   64.46</time>
   <time name="diis">   53.06   53.06</time>
   <time name="orth">   33.39   33.39</time>
   <time name="total">  158.10  158.17</time>
   <energy>
    <i name="e_fr_energy">  -1119.80412649 </i>
    <i name="e_wo_entrp">  -1119.80412649 </i>
    <i name="e_0_energy">  -1119.80412649 </i>
   </energy>
  </scstep>
  <scstep>
   <time name="diag">   64.46   64.46</time>
   <time name="diis">   51.78   51.79</time>
   <time name="orth">   33.36   33.36</time>
   <time name="total">  156.80  156.91</time>
   <energy>
    <i name="e_fr_energy">  -1119.80412688 </i>
    <i name="e_wo_entrp">  -1119.80412688 </i>
    <i name="e_0_energy">  -1119.80412688 </i>
   </energy>
  </scstep>
  <scstep>
   <time name="diag">   64.53   64.53</time>
   <time name="diis">   46.85   46.85</time>
   <time name="orth">   33.39   33.39</time>
   <time name="total">  151.97  152.11</time>
   <energy>
    <i name="e_fr_energy">  -1119.80412710 </i>
    <i name="e_wo_entrp">  -1119.80412710 </i>
    <i name="e_0_energy">  -1119.80412710 </i>
   </energy>
  </scstep>
  <scstep>
   <time name="diag">   64.65   64.65</time>
   <time name="diis">   46.45   46.45</time>
   <time name="orth">   33.34   33.34</time>
   <time name="total">  151.57  151.67</time>
   <energy>
    <i name="e_fr_energy">  -1119.80412718 </i>
    <i name="e_wo_entrp">  -1119.80412718 </i>
    <i name="e_0_energy">  -1119.80412718 </i>
   </energy>
  </scstep>
  <scstep>
   <time name="diag">   64.72   64.72</time>
   <time name="diis">   45.26   45.26</time>
   <time name="orth">   33.31   33.31</time>
   <time name="total">  144.34  144.37</time>
   <energy>
    <i name="alphaZ">   5632.44028769 </i>
    <i name="ewald"> -61504.54941217 </i>
    <i name="hartreedc"> -16040.50868625 </i>
    <i name="XCdc">   2963.17728048 </i>
    <i name="pawpsdc"> 112770.08017426 </i>
    <i name="pawaedc">-111669.60509314 </i>
    <i name="eentropy">     -0.00000000 </i>
    <i name="bandstr">  -7054.28647483 </i>
    <i name="atom">  73783.44779670 </i>
    <i name="e_fr_energy">  -1119.80412726 </i>
    <i name="e_wo_entrp">  -1119.80412726 </i>
    <i name="e_0_energy">  -1119.80412726 </i>
   </energy>
  </scstep>
  <structure>
   <crystal>
    <varray name="basis" >
     <v>      11.22129196       0.01725281      -0.00101606 </v>
     <v>       0.01724649      11.21862090      -0.00121026 </v>
     <v>      -0.00148922      -0.00175617      15.91612645 </v>
    </varray>
    <i name="volume">   2003.63532704 </i>
    <varray name="rec_basis" >
     <v>       0.08911651      -0.00013700       0.00000832 </v>
     <v>      -0.00013705       0.08913773       0.00000982 </v>
     <v>       0.00000568       0.00000677       0.06282936 </v>
    </varray>
   </crystal>
   <varray name="positions" >
    <v>       0.00046115       0.25650581       0.12352117 </v>
    <v>       0.00543565       0.25074564       0.62009889 </v>
    <v>       0.99916951       0.74123366       0.11819894 </v>
    <v>       0.99814926       0.74754995       0.62393563 </v>
    <v>       0.50081736       0.24911447       0.12443688 </v>
    <v>       0.49636376       0.24853419       0.61847331 </v>
    <v>       0.50207716       0.75398807       0.11880168 </v>
    <v>       0.50178543       0.75262247       0.62889409 </v>
    <v>       0.99871589       0.25386352       0.37599737 </v>
    <v>       0.00530819       0.25189143       0.87986115 </v>
    <v>       0.99338902       0.73939374       0.37765448 </v>
    <v>       0.99566834       0.74978184       0.87759268 </v>
    <v>       0.50442364       0.24583158       0.37702377 </v>
    <v>       0.49500731       0.25189823       0.88096115 </v>
    <v>       0.50624747       0.75349612       0.37211643 </v>
    <v>       0.50286959       0.75177507       0.87872982 </v>
    <v>       0.25849158       0.00413690       0.12095706 </v>
    <v>       0.25363787       0.00622889       0.62404102 </v>
    <v>       0.24724953       0.49609201       0.12169838 </v>
    <v>       0.24576180       0.49518188       0.62488970 </v>
    <v>       0.74743886       0.00075353       0.12223351 </v>
    <v>       0.74723905       0.00145675       0.62338699 </v>
    <v>       0.75566156       0.49866867       0.12336137 </v>
    <v>       0.75400652       0.49881606       0.62613099 </v>
    <v>       0.25885590       0.00937720       0.37396396 </v>
    <v>       0.25176378       0.00460508       0.87650532 </v>
    <v>       0.24341038       0.49025647       0.37556122 </v>
    <v>       0.24792275       0.49933661       0.87732003 </v>
    <v>       0.74576435       0.00859326       0.37523079 </v>
    <v>       0.74728830       0.99712069       0.87955624 </v>
    <v>       0.75798009       0.49128369       0.37316043 </v>
    <v>       0.75054452       0.50687494       0.87904595 </v>
    <v>       0.00000105       0.99823142       0.00320715 </v>
    <v>       0.00298264       0.00132609       0.49603805 </v>
    <v>       0.49888657       0.50052432       0.00178689 </v>
    <v>       0.25047433       0.25060476       0.00076805 </v>
    <v>       0.24948242       0.24922284       0.49886840 </v>
    <v>       0.25005847       0.75050656       0.99623174 </v>
    <v>       0.25074836       0.74983679       0.50933866 </v>
    <v>       0.74938330       0.24937947       0.00013812 </v>
    <v>       0.74820967       0.25006841       0.50133027 </v>
    <v>       0.75151068       0.75165373       0.00253995 </v>
    <v>       0.75606029       0.76151160       0.49970129 </v>
    <v>       0.25317786       0.25209167       0.24994914 </v>
    <v>       0.25078786       0.24933764       0.74959971 </v>
    <v>       0.24945987       0.75072198       0.24191114 </v>
    <v>       0.24892368       0.74982527       0.75356488 </v>
    <v>       0.75202514       0.24834462       0.24795595 </v>
    <v>       0.76390491       0.25776899       0.75038813 </v>
    <v>       0.74842539       0.75065986       0.75039299 </v>
    <v>       0.00082665       0.99950345       0.74972190 </v>
    <v>       0.00046804       0.50183642       0.25037080 </v>
    <v>       0.00488918       0.50603937       0.75024825 </v>
    <v>       0.50375519       0.99982233       0.25037921 </v>
    <v>       0.50101426       0.50030469       0.25369989 </v>
    <v>       0.49976963       0.50136856       0.74846674 </v>
    <v>       0.00026602       0.49971416       0.99867580 </v>
    <v>       0.99839126       0.49691456       0.50027229 </v>
    <v>       0.50149376       0.00152380       0.99795396 </v>
    <v>       0.49961456       0.99946509       0.50017260 </v>
    <v>       0.48860568       0.49325200       0.49914671 </v>
    <v>       0.73640788       0.74065723       0.24861381 </v>
    <v>       0.01058972       0.01200318       0.25106084 </v>
    <v>       0.49101109       0.98767645       0.75009955 </v>
    <v>       0.11328646       0.14344677       0.24996598 </v>
    <v>       0.10668260       0.14225313       0.75034641 </v>
    <v>       0.11826626       0.63794922       0.26113304 </v>
    <v>       0.10684257       0.64629010       0.75089897 </v>
    <v>       0.61021115       0.14205729       0.24791587 </v>
    <v>       0.60495538       0.64020392       0.23986939 </v>
    <v>       0.60915704       0.63927557       0.75545662 </v>
    <v>       0.39054454       0.36423120       0.25908356 </v>
    <v>       0.38951585       0.36243408       0.74253551 </v>
    <v>       0.38195256       0.86095133       0.26227795 </v>
    <v>       0.38912893       0.85303823       0.75172436 </v>
    <v>       0.88701406       0.36455333       0.24897859 </v>
    <v>       0.89409235       0.35720022       0.74532158 </v>
    <v>       0.89260406       0.85540719       0.74499500 </v>
    <v>       0.36216209       0.11311857       0.24888924 </v>
    <v>       0.36401480       0.11531739       0.74905558 </v>
    <v>       0.35833513       0.61718659       0.26707210 </v>
    <v>       0.35650417       0.60780205       0.74784330 </v>
    <v>       0.85811568       0.10770557       0.24711125 </v>
    <v>       0.85138899       0.10429605       0.74948001 </v>
    <v>       0.87044706       0.62764759       0.25161190 </v>
    <v>       0.85782772       0.60604852       0.74928719 </v>
    <v>       0.13968906       0.38977590       0.24889078 </v>
    <v>       0.14250550       0.39270378       0.74935263 </v>
    <v>       0.13356737       0.87830794       0.26521138 </v>
    <v>       0.14453449       0.89304748       0.75001318 </v>
    <v>       0.63935431       0.39131628       0.24727996 </v>
    <v>       0.63575442       0.37966912       0.74926122 </v>
    <v>       0.64787456       0.89338438       0.25212561 </v>
    <v>       0.64473802       0.89194378       0.74752014 </v>
    <v>       0.36169017       0.38814385       0.99652131 </v>
    <v>       0.36071769       0.38597555       0.50261492 </v>
    <v>       0.36140057       0.88669175       0.99382321 </v>
    <v>       0.35410066       0.88623778       0.49264341 </v>
    <v>       0.86045622       0.38427031       0.99439325 </v>
    <v>       0.86468393       0.37792451       0.51067672 </v>
    <v>       0.86379345       0.88806402       0.99582559 </v>
    <v>       0.86102293       0.88678415       0.50652603 </v>
    <v>       0.13690637       0.11130883       0.00516117 </v>
    <v>       0.13617680       0.11012600       0.49298522 </v>
    <v>       0.14017161       0.61445719       0.00236281 </v>
    <v>       0.13747845       0.62175399       0.48406576 </v>
    <v>       0.63804025       0.11543228       0.00696789 </v>
    <v>       0.63878292       0.11310281       0.49639121 </v>
    <v>       0.63684017       0.61368112       0.00660109 </v>
    <v>       0.11372817       0.36052438       0.00150019 </v>
    <v>       0.11480771       0.36165232       0.49901562 </v>
    <v>       0.11244584       0.86086178       0.99916866 </v>
    <v>       0.11186308       0.85901303       0.48951536 </v>
    <v>       0.61132373       0.36420449       0.00194120 </v>
    <v>       0.61899411       0.37105288       0.50266256 </v>
    <v>       0.61456310       0.86182914       0.99843148 </v>
    <v>       0.60549780       0.84650411       0.50152603 </v>
    <v>       0.38542479       0.13843484       0.00160651 </v>
    <v>       0.38526250       0.13849721       0.49932759 </v>
    <v>       0.38858672       0.63951107       0.99904483 </v>
    <v>       0.38671939       0.64284596       0.48982203 </v>
    <v>       0.88895620       0.13640106       0.00193413 </v>
    <v>       0.88771314       0.13482184       0.50213260 </v>
    <v>       0.88545979       0.63769177       0.99888585 </v>
    <v>       0.86670881       0.62686818       0.49906205 </v>
    <v>       0.99538673       0.98009840       0.12976964 </v>
    <v>       0.00793761       0.99795191       0.62310349 </v>
    <v>       0.99959911       0.50311324       0.12713293 </v>
    <v>       0.00951129       0.50903146       0.62502464 </v>
    <v>       0.49405267       0.98930975       0.12803258 </v>
    <v>       0.50652164       0.00909896       0.62801288 </v>
    <v>       0.48455319       0.49917116       0.12680380 </v>
    <v>       0.51299994       0.51893663       0.62080428 </v>
    <v>       0.97851613       0.98963104       0.37249611 </v>
    <v>       0.00224044       0.99993519       0.87451692 </v>
    <v>       0.99269208       0.49221370       0.37447437 </v>
    <v>       0.00221587       0.49931680       0.87232335 </v>
    <v>       0.50279141       0.00298720       0.37398458 </v>
    <v>       0.51461661       0.01722177       0.86883768 </v>
    <v>       0.52420323       0.51209769       0.37884745 </v>
    <v>       0.50007340       0.49947356       0.87479612 </v>
    <v>       0.24987232       0.25054516       0.37461451 </v>
    <v>       0.24893689       0.24888217       0.87462497 </v>
    <v>       0.24788078       0.74567900       0.87429874 </v>
    <v>       0.75259649       0.25297815       0.37500063 </v>
    <v>       0.73767964       0.23816385       0.87109970 </v>
    <v>       0.74587683       0.74784705       0.37628796 </v>
    <v>       0.75091755       0.74856490       0.87446040 </v>
    <v>       0.25614534       0.25570094       0.12618330 </v>
    <v>       0.24337855       0.24478256       0.62390357 </v>
    <v>       0.25327788       0.75314094       0.12589849 </v>
    <v>       0.24570566       0.74697226       0.62530867 </v>
    <v>       0.75370980       0.25548255       0.12445391 </v>
    <v>       0.73235525       0.23320617       0.63107102 </v>
    <v>       0.76383262       0.76356965       0.12704493 </v>
    <v>       0.73702777       0.73395965       0.62221053 </v>
   </varray>
  </structure>
  <varray name="forces" >
   <v>      -0.02425734      -0.01298399       0.02588703 </v>
   <v>       0.00355005      -0.01574665      -0.01107819 </v>
   <v>       0.00756636       0.01078282       0.01367523 </v>
   <v>      -0.01975070       0.01223417       0.02606055 </v>
   <v>       0.01987573       0.00813735       0.00650745 </v>
   <v>      -0.01394165       0.00717766      -0.01378038 </v>
   <v>       0.01710213       0.00604874       0.01345455 </v>
   <v>       0.01324490      -0.01115338       0.00033592 </v>
   <v>      -0.00794491       0.01835711       0.00541013 </v>
   <v>      -0.00950637      -0.00915746      -0.00354916 </v>
   <v>       0.03555234      -0.00222664       0.00960287 </v>
   <v>      -0.00671585       0.01480674      -0.03236298 </v>
   <v>      -0.00788758      -0.00181276       0.00755167 </v>
   <v>      -0.00074495       0.01704133       0.00208161 </v>
   <v>      -0.01571926       0.01876187      -0.00232328 </v>
   <v>       0.01732165      -0.01071418      -0.02122284 </v>
   <v>      -0.00237863      -0.00232621       0.02495268 </v>
   <v>      -0.02199528      -0.00634118      -0.00406969 </v>
   <v>       0.00810161      -0.01262697       0.00843725 </v>
   <v>       0.00791269      -0.00265606      -0.01521158 </v>
   <v>       0.00359732      -0.00174962       0.00619794 </v>
   <v>       0.01955219      -0.00049631      -0.02018878 </v>
   <v>      -0.01169403      -0.00790141       0.01298907 </v>
   <v>      -0.00352783       0.00180940       0.00268803 </v>
   <v>       0.00360723      -0.02218202       0.00371725 </v>
   <v>      -0.01199568      -0.00569513      -0.00765456 </v>
   <v>      -0.01319179       0.01624704       0.01612476 </v>
   <v>       0.00920763      -0.00493646      -0.01912437 </v>
   <v>      -0.00347448       0.00134654       0.00171413 </v>
   <v>       0.00420396      -0.00408775      -0.02089563 </v>
   <v>       0.02658996      -0.00484950      -0.01095620 </v>
   <v>      -0.02276805       0.00123785      -0.01415678 </v>
   <v>      -0.01870661       0.03234729      -0.01577532 </v>
   <v>       0.03132013      -0.00486567      -0.00191037 </v>
   <v>       0.02148690      -0.01369736       0.00054982 </v>
   <v>       0.01140493      -0.01810120       0.01255397 </v>
   <v>      -0.00145459       0.00188815      -0.00326884 </v>
   <v>       0.00643870       0.00888266      -0.00452422 </v>
   <v>       0.00508752      -0.03135240      -0.04152360 </v>
   <v>       0.01353418       0.02220996       0.02120417 </v>
   <v>      -0.00898326      -0.02981297       0.01125206 </v>
   <v>      -0.01775710      -0.00581138       0.01049431 </v>
   <v>       0.03160274       0.01463368      -0.02983863 </v>
   <v>      -0.00248738       0.01718230       0.02025864 </v>
   <v>      -0.00355739       0.01408363      -0.00372757 </v>
   <v>       0.03169276       0.03489702       0.03023293 </v>
   <v>      -0.02941869       0.00780542       0.01558251 </v>
   <v>       0.03410391       0.00948894       0.00512338 </v>
   <v>      -0.01140294       0.00945458      -0.04944439 </v>
   <v>       0.01335274       0.01696520      -0.01175449 </v>
   <v>      -0.00310819      -0.03381243       0.00687130 </v>
   <v>      -0.01215709      -0.01574546       0.04141644 </v>
   <v>      -0.00983367      -0.00345641      -0.02625063 </v>
   <v>      -0.00835255      -0.05116581      -0.00014118 </v>
   <v>      -0.02603297       0.01505511       0.01981847 </v>
   <v>       0.00416694      -0.00546797      -0.00678326 </v>
   <v>      -0.01143879      -0.01982484      -0.00003903 </v>
   <v>       0.00405621       0.02691514      -0.03020116 </v>
   <v>       0.00359235       0.02212328       0.00781023 </v>
   <v>       0.02045372      -0.02691431      -0.01693864 </v>
   <v>      -0.00900222       0.02866906      -0.00896063 </v>
   <v>      -0.03217147      -0.00143812       0.03723216 </v>
   <v>       0.01957251       0.01599481      -0.00653339 </v>
   <v>       0.00280732      -0.02330397      -0.00029797 </v>
   <v>       0.00021722      -0.05723581      -0.00522986 </v>
   <v>       0.00759386       0.00613663       0.00040881 </v>
   <v>       0.01597906      -0.01561546      -0.02816578 </v>
   <v>       0.00846506       0.01311159       0.00907599 </v>
   <v>       0.03478809      -0.00834972       0.00414853 </v>
   <v>       0.00349826      -0.00603113      -0.02185334 </v>
   <v>      -0.03068542      -0.02289029      -0.01402531 </v>
   <v>       0.01378191       0.03228339       0.00864069 </v>
   <v>      -0.01123843       0.01221067       0.01592493 </v>
   <v>      -0.03135774      -0.00845317      -0.00967599 </v>
   <v>       0.01898254       0.02584930      -0.00061120 </v>
   <v>      -0.03433368      -0.01295979       0.01900122 </v>
   <v>      -0.00813117       0.00788999       0.00395447 </v>
   <v>      -0.01381070       0.03666674       0.00285631 </v>
   <v>       0.04108469       0.01605046      -0.01029633 </v>
   <v>       0.00677424       0.01741536       0.00497492 </v>
   <v>       0.01043900       0.01690500      -0.00164591 </v>
   <v>       0.00498084      -0.02100228       0.01548877 </v>
   <v>      -0.00010709      -0.00907528       0.00770460 </v>
   <v>      -0.01571331      -0.00795492       0.02371660 </v>
   <v>       0.03312268       0.00147288      -0.01900247 </v>
   <v>       0.02026608       0.00867372       0.00532677 </v>
   <v>      -0.00361172      -0.00995710      -0.01571894 </v>
   <v>       0.00891988      -0.02448730       0.00704511 </v>
   <v>      -0.01458211      -0.00904720      -0.00947579 </v>
   <v>      -0.01938105       0.00498895       0.01026743 </v>
   <v>      -0.00669290      -0.00634727       0.01372400 </v>
   <v>       0.00508044      -0.00253185       0.02139187 </v>
   <v>      -0.01370069       0.00463636      -0.02893714 </v>
   <v>      -0.02228075       0.00222153       0.01816683 </v>
   <v>       0.01948785       0.02092137      -0.00335279 </v>
   <v>       0.02010481      -0.01195164      -0.01828284 </v>
   <v>       0.00800877      -0.00205537       0.00246878 </v>
   <v>       0.05177338      -0.00003953      -0.00110753 </v>
   <v>       0.01504097       0.01220584       0.00192438 </v>
   <v>       0.02417669       0.00292194      -0.00631001 </v>
   <v>       0.03072189       0.00517304      -0.01181874 </v>
   <v>       0.04415503       0.00812623       0.01670996 </v>
   <v>      -0.03958636      -0.01160591       0.01206216 </v>
   <v>      -0.06116015      -0.02427806      -0.00242925 </v>
   <v>      -0.01730266       0.00771757       0.00903914 </v>
   <v>      -0.03012316      -0.00343662       0.01877647 </v>
   <v>      -0.01192023       0.00539249      -0.01353969 </v>
   <v>      -0.05549289      -0.00793573       0.01229128 </v>
   <v>      -0.01201225      -0.00682098      -0.00780714 </v>
   <v>      -0.00837130       0.03549382       0.00335587 </v>
   <v>       0.00467020       0.03654328       0.00721515 </v>
   <v>       0.01840945       0.00817187       0.01346301 </v>
   <v>       0.01150182       0.03362896      -0.00929579 </v>
   <v>      -0.01560989       0.01561948      -0.02568835 </v>
   <v>      -0.01060867      -0.00146600      -0.00764443 </v>
   <v>       0.01127543       0.01319117      -0.00388562 </v>
   <v>      -0.01154698       0.01883871      -0.00166600 </v>
   <v>      -0.00934862      -0.01292885      -0.00242306 </v>
   <v>      -0.01493421      -0.04926260      -0.00316191 </v>
   <v>      -0.00635115       0.01497767       0.00995967 </v>
   <v>       0.02010246      -0.00943171       0.01252612 </v>
   <v>       0.01696253      -0.00437426      -0.00318832 </v>
   <v>      -0.00193074      -0.03865543      -0.00737222 </v>
   <v>       0.00001117      -0.02943494       0.00255612 </v>
   <v>      -0.01662683      -0.07505958       0.00656212 </v>
   <v>      -0.00744146       0.01700350       0.02018505 </v>
   <v>       0.00400841       0.01182806      -0.02180360 </v>
   <v>       0.00433891      -0.01854799      -0.01923364 </v>
   <v>      -0.02177251       0.00261396      -0.02970562 </v>
   <v>       0.00729316       0.03507374      -0.00406559 </v>
   <v>      -0.00287128      -0.00717563       0.01048169 </v>
   <v>       0.01709478      -0.01042102       0.03544208 </v>
   <v>      -0.03050357      -0.01318367      -0.01269018 </v>
   <v>       0.00072379      -0.02626266      -0.01862017 </v>
   <v>      -0.00570377       0.01408207       0.01205395 </v>
   <v>       0.02771182       0.00600363       0.00714662 </v>
   <v>       0.00452795       0.00766925       0.02522663 </v>
   <v>       0.00686122       0.00846575       0.00831740 </v>
   <v>      -0.01978264       0.00357210      -0.00248395 </v>
   <v>      -0.00313505       0.01540604       0.00410955 </v>
   <v>      -0.00977147       0.02831500      -0.01554039 </v>
   <v>       0.00265098      -0.00830040      -0.00660686 </v>
   <v>      -0.01863519       0.01114168      -0.01367102 </v>
   <v>      -0.00713573      -0.00694796      -0.02837059 </v>
   <v>      -0.01244839      -0.02416331      -0.02122273 </v>
   <v>       0.00675347      -0.00199463       0.00102206 </v>
   <v>       0.00573421       0.00004698      -0.03550946 </v>
   <v>      -0.00355896      -0.00174425       0.00987649 </v>
   <v>       0.00033355       0.01655686      -0.00055467 </v>
   <v>       0.00575370       0.00900831       0.01267612 </v>
   <v>       0.01664589      -0.00963282      -0.05546381 </v>
   <v>      -0.00301688       0.01128483       0.05575363 </v>
   <v>       0.00021212      -0.00323804       0.02844820 </v>
   <v>      -0.01409994      -0.00228277       0.02832566 </v>
   <v>       0.00679800       0.00216978       0.00016406 </v>
   <v>       0.01231138      -0.00927750       0.02589597 </v>
  </varray>
  <varray name="stress" >
   <v>       0.06370066       0.14286290      -0.04066678 </v>
   <v>       0.14286214       0.04318196      -0.07117238 </v>
   <v>      -0.04066622      -0.07117274      -0.06019527 </v>
  </varray>
  <energy>
   <i name="e_fr_energy">  -1119.80412726 </i>
   <i name="e_wo_entrp">  -1119.80412726 </i>
   <i name="e_0_energy">     -0.00000000 </i>
  </energy>
  <time name="totalsc"> 1962.71 1965.73</time>
 </calculation>
 <calculation>
  <scstep>
   <time name="dav">  570.20  570.17</time>
   <time name="total">  577.29  577.34</time>
   <energy>
    <i name="alphaZ">   5632.33861794 </i>
    <i name="ewald"> -61503.50743327 </i>
    <i name="hartreedc"> -16041.21550281 </i>
    <i name="XCdc">   2963.15623224 </i>
    <i name="pawpsdc"> 112770.07252303 </i>
    <i name="pawaedc">-111669.59755792 </i>
    <i name="eentropy">     -0.00000000 </i>
    <i name="bandstr">  -7054.49864785 </i>
    <i name="atom">  73783.44779670 </i>
    <i name="e_fr_energy">  -1119.80397194 </i>
    <i name="e_wo_entrp">  -1119.80397194 </i>
    <i name="e_0_energy">  -1119.80397194 </i>
   </energy>
  </scstep>
  <scstep>
   <time name="diag">   64.99   64.98</time>
   <time name="diis">  104.01  104.00</time>
   <time name="orth">   33.37   33.37</time>
   <time name="total">  209.58  209.58</time>
   <energy>
    <i name="e_fr_energy">  -1119.80794454 </i>
    <i name="e_wo_entrp">  -1119.80794454 </i>
    <i name="e_0_energy">  -1119.80794454 </i>
   </energy>
  </scstep>
  <scstep>
   <time name="diag">   64.72   64.72</time>
   <time name="diis">  106.65  106.64</time>
   <time name="orth">   33.39   33.39</time>
   <time name="total">  211.97  212.12</time>
   <energy>
    <i name="e_fr_energy">  -1119.80797871 </i>
    <i name="e_wo_entrp">  -1119.80797871 </i>
    <i name="e_0_energy">  -1119.80797871 </i>
   </energy>
  </scstep>
  <scstep>
   <time name="diag">   64.69   64.69</time>
   <time name="diis">   93.65   93.64</time>
   <time name="orth">   33.39   33.39</time>
   <time name="total">  198.94  199.28</time>
   <energy>
    <i name="e_fr_energy">  -1119.80775280 </i>
    <i name="e_wo_entrp">  -1119.80775280 </i>
    <i name="e_0_energy">  -1119.80775280 </i>
   </energy>
  </scstep>
  <scstep>
   <time name="diag">   64.66   64.66</time>
   <time name="diis">   83.87   83.86</time>
   <time name="orth">   33.42   33.42</time>
   <time name="total">  189.16  189.23</time>
   <energy>
    <i name="e_fr_energy">  -1119.80769941 </i>
    <i name="e_wo_entrp">  -1119.80769941 </i>
    <i name="e_0_energy">  -1119.80769941 </i>
   </energy>
  </scstep>
  <scstep>
   <time name="diag">   64.65   64.65</time>
   <time name="diis">   64.42   64.42</time>
   <time name="orth">   33.41   33.41</time>
   <time name="total">  169.71  169.94</time>
   <energy>
    <i name="e_fr_energy">  -1119.80769770 </i>
    <i name="e_wo_entrp">  -1119.80769770 </i>
    <i name="e_0_energy">  -1119.80769770 </i>
   </energy>
  </scstep>
  <scstep>
   <time name="diag">   64.60   64.60</time>
   <time name="diis">   63.29   63.29</time>
   <time name="orth">   33.37   33.37</time>
   <time name="total">  168.37  168.55</time>
   <energy>
    <i name="e_fr_energy">  -1119.80769703 </i>
    <i name="e_wo_entrp">  -1119.80769703 </i>
    <i name="e_0_energy">  -1119.80769703 </i>
   </energy>
  </scstep>
  <scstep>
   <time name="diag">   64.58   64.58</time>
   <time name="diis">   61.79   61.79</time>
   <time name="orth">   33.39   33.39</time>
   <time name="total">  160.80  161.16</time>
   <energy>
    <i name="alphaZ">   5632.33861794 </i>
    <i name="ewald"> -61503.50743327 </i>
    <i name="hartreedc"> -16041.60069419 </i>
    <i name="XCdc">   2963.16697700 </i>
    <i name="pawpsdc"> 112735.15468415 </i>
    <i name="pawaedc">-111634.70278159 </i>
    <i name="eentropy">     -0.00000000 </i>
    <i name="bandstr">  -7054.10486392 </i>
    <i name="atom">  73783.44779670 </i>
    <i name="e_fr_energy">  -1119.80769718 </i>
    <i name="e_wo_entrp">  -1119.80769718 </i>
    <i name="e_0_energy">  -1119.80769718 </i>
   </energy>
  </scstep>
  <structure>
   <crystal>
    <varray name="basis" >
     <v>      11.22156937       0.01787311      -0.00119300 </v>
     <v>       0.01786677      11.21880924      -0.00151930 </v>
     <v>      -0.00173967      -0.00219437      15.91575600 </v>
    </varray>
    <i name="volume">   2003.67149481 </i>
    <varray name="rec_basis" >
     <v>       0.08911432      -0.00014192       0.00000972 </v>
     <v>      -0.00014197       0.08913625       0.00001227 </v>
     <v>       0.00000667       0.00000850       0.06283082 </v>
    </varray>
   </crystal>
   <varray name="positions" >
    <v>       0.00035696       0.25645015       0.12359962 </v>
    <v>       0.00545101       0.25067790       0.62006531 </v>
    <v>       0.99920197       0.74127999       0.11824039 </v>
    <v>       0.99806428       0.74760270       0.62401462 </v>
    <v>       0.50090276       0.24914934       0.12445661 </v>
    <v>       0.49630377       0.24856514       0.61843154 </v>
    <v>       0.50215065       0.75401397       0.11884246 </v>
    <v>       0.50184244       0.75257442       0.62889511 </v>
    <v>       0.99868162       0.25394252       0.37601377 </v>
    <v>       0.00526737       0.25185212       0.87985038 </v>
    <v>       0.99354189       0.73938394       0.37768360 </v>
    <v>       0.99563936       0.74984554       0.87749459 </v>
    <v>       0.50438974       0.24582384       0.37704666 </v>
    <v>       0.49500399       0.25197152       0.88096747 </v>
    <v>       0.50617976       0.75357690       0.37210939 </v>
    <v>       0.50294413       0.75172887       0.87866549 </v>
    <v>       0.25848138       0.00412693       0.12103269 </v>
    <v>       0.25354334       0.00620176       0.62402867 </v>
    <v>       0.24728445       0.49603766       0.12172395 </v>
    <v>       0.24579583       0.49517040       0.62484359 </v>
    <v>       0.74745434       0.00074598       0.12225229 </v>
    <v>       0.74732311       0.00145448       0.62332580 </v>
    <v>       0.75561134       0.49863478       0.12340073 </v>
    <v>       0.75399134       0.49882386       0.62613914 </v>
    <v>       0.25887156       0.00928179       0.37397522 </v>
    <v>       0.25171224       0.00458067       0.87648211 </v>
    <v>       0.24335357       0.49032643       0.37561010 </v>
    <v>       0.24796237       0.49931531       0.87726207 </v>
    <v>       0.74574941       0.00859907       0.37523598 </v>
    <v>       0.74730639       0.99710308       0.87949290 </v>
    <v>       0.75809443       0.49126266       0.37312723 </v>
    <v>       0.75044662       0.50688041       0.87900303 </v>
    <v>      -0.00007959       0.99837064       0.00315934 </v>
    <v>       0.00311733       0.00130496       0.49603227 </v>
    <v>       0.49897903       0.50046528       0.00178856 </v>
    <v>       0.25052349       0.25052685       0.00080610 </v>
    <v>       0.24947615       0.24923096       0.49885849 </v>
    <v>       0.25008609       0.75054471       0.99621803 </v>
    <v>       0.25077042       0.74970191       0.50921279 </v>
    <v>       0.74944135       0.24947490       0.00020240 </v>
    <v>       0.74817126       0.24994027       0.50136436 </v>
    <v>       0.75143438       0.75162886       0.00257175 </v>
    <v>       0.75619605       0.76157431       0.49961086 </v>
    <v>       0.25316706       0.25216558       0.25001055 </v>
    <v>       0.25077247       0.24939822       0.74958841 </v>
    <v>       0.24959590       0.75087185       0.24200280 </v>
    <v>       0.24879716       0.74985904       0.75361210 </v>
    <v>       0.75217170       0.24838520       0.24797150 </v>
    <v>       0.76385580       0.25780970       0.75023826 </v>
    <v>       0.74848268       0.75073273       0.75035737 </v>
    <v>       0.00081351       0.99935807       0.74974272 </v>
    <v>       0.00041589       0.50176881       0.25049633 </v>
    <v>       0.00484692       0.50602456       0.75016868 </v>
    <v>       0.50371962       0.99960236       0.25037876 </v>
    <v>       0.50090225       0.50036962       0.25375996 </v>
    <v>       0.49978758       0.50134502       0.74844618 </v>
    <v>       0.00021698       0.49962899       0.99867567 </v>
    <v>       0.99840851       0.49703026       0.50018076 </v>
    <v>       0.50150906       0.00161891       0.99797764 </v>
    <v>       0.49970267       0.99934921       0.50012126 </v>
    <v>       0.48856679       0.49337534       0.49911956 </v>
    <v>       0.73626959       0.74065128       0.24872665 </v>
    <v>       0.01067376       0.01207183       0.25104105 </v>
    <v>       0.49102331       0.98757622       0.75009864 </v>
    <v>       0.11328777       0.14320064       0.24995011 </v>
    <v>       0.10671521       0.14227947       0.75034765 </v>
    <v>       0.11833505       0.63788195       0.26104766 </v>
    <v>       0.10687888       0.64634644       0.75092649 </v>
    <v>       0.61036077       0.14202116       0.24792845 </v>
    <v>       0.60497046       0.64017796       0.23980315 </v>
    <v>       0.60902526       0.63917733       0.75541409 </v>
    <v>       0.39060359       0.36436994       0.25910976 </v>
    <v>       0.38946746       0.36248667       0.74258378 </v>
    <v>       0.38181780       0.86091518       0.26224861 </v>
    <v>       0.38921037       0.85314926       0.75172252 </v>
    <v>       0.88686654       0.36449783       0.24903617 </v>
    <v>       0.89405734       0.35723420       0.74533357 </v>
    <v>       0.89254444       0.85556496       0.74500367 </v>
    <v>       0.36233861       0.11318731       0.24885805 </v>
    <v>       0.36404381       0.11539224       0.74907067 </v>
    <v>       0.35837990       0.61725922       0.26706712 </v>
    <v>       0.35652573       0.60771171       0.74789025 </v>
    <v>       0.85811528       0.10766655       0.24713460 </v>
    <v>       0.85132150       0.10426196       0.74955189 </v>
    <v>       0.87058945       0.62765370       0.25155431 </v>
    <v>       0.85791480       0.60608569       0.74930334 </v>
    <v>       0.13967359       0.38973309       0.24884313 </v>
    <v>       0.14254401       0.39259842       0.74937398 </v>
    <v>       0.13350473       0.87826913       0.26518266 </v>
    <v>       0.14445114       0.89306907       0.75004429 </v>
    <v>       0.63932558       0.39128904       0.24732156 </v>
    <v>       0.63577629       0.37965821       0.74932606 </v>
    <v>       0.64781562       0.89340439       0.25203790 </v>
    <v>       0.64464223       0.89195349       0.74757520 </v>
    <v>       0.36177382       0.38823368       0.99651116 </v>
    <v>       0.36080420       0.38592401       0.50255950 </v>
    <v>       0.36143501       0.88668286       0.99383070 </v>
    <v>       0.35432325       0.88623726       0.49264007 </v>
    <v>       0.86052081       0.38432270       0.99439909 </v>
    <v>       0.86478784       0.37793691       0.51065760 </v>
    <v>       0.86392549       0.88808606       0.99578978 </v>
    <v>       0.86121272       0.88681881       0.50657669 </v>
    <v>       0.13673626       0.11125919       0.00519772 </v>
    <v>       0.13591402       0.11002200       0.49297784 </v>
    <v>       0.14009717       0.61449050       0.00239020 </v>
    <v>       0.13734898       0.62173942       0.48412266 </v>
    <v>       0.63798896       0.11545554       0.00692685 </v>
    <v>       0.63854440       0.11306906       0.49642844 </v>
    <v>       0.63678857       0.61365186       0.00657742 </v>
    <v>       0.11369195       0.36067707       0.00151037 </v>
    <v>       0.11482755       0.36180944       0.49903751 </v>
    <v>       0.11252493       0.86089681       0.99920948 </v>
    <v>       0.11191231       0.85915757       0.48948720 </v>
    <v>       0.61125650       0.36427175       0.00186334 </v>
    <v>       0.61894851       0.37104664       0.50263938 </v>
    <v>       0.61461149       0.86188579       0.99841971 </v>
    <v>       0.60544804       0.84658520       0.50152098 </v>
    <v>       0.38538468       0.13837930       0.00159916 </v>
    <v>       0.38519862       0.13828547       0.49931799 </v>
    <v>       0.38855932       0.63957552       0.99907502 </v>
    <v>       0.38680589       0.64280527       0.48986000 </v>
    <v>       0.88902915       0.13638214       0.00192447 </v>
    <v>       0.88770509       0.13465562       0.50211024 </v>
    <v>       0.88546004       0.63756519       0.99889359 </v>
    <v>       0.86663783       0.62654552       0.49908191 </v>
    <v>       0.99535463       0.98017158       0.12983082 </v>
    <v>       0.00795476       0.99800274       0.62303741 </v>
    <v>       0.99961788       0.50303344       0.12707463 </v>
    <v>       0.00941765       0.50904283       0.62493459 </v>
    <v>       0.49408379       0.98946053       0.12802027 </v>
    <v>       0.50650935       0.00906812       0.62804464 </v>
    <v>       0.48462677       0.49912625       0.12691123 </v>
    <v>       0.51286888       0.51888014       0.62076580 </v>
    <v>       0.97851941       0.98951809       0.37243967 </v>
    <v>       0.00221583       0.99999579       0.87455346 </v>
    <v>       0.99281118       0.49223933       0.37449604 </v>
    <v>       0.00223529       0.49934977       0.87239982 </v>
    <v>       0.50282085       0.00302356       0.37400980 </v>
    <v>       0.51453154       0.01723727       0.86883015 </v>
    <v>       0.52418965       0.51216396       0.37885991 </v>
    <v>       0.50003119       0.49959538       0.87474902 </v>
    <v>       0.24988377       0.25050945       0.37459448 </v>
    <v>       0.24885670       0.24893020       0.87458353 </v>
    <v>       0.24785014       0.74564916       0.87421275 </v>
    <v>       0.75254312       0.25287431       0.37493629 </v>
    <v>       0.73770869       0.23815523       0.87110280 </v>
    <v>       0.74590147       0.74784720       0.37618033 </v>
    <v>       0.75090226       0.74855742       0.87449033 </v>
    <v>       0.25614666       0.25577214       0.12618163 </v>
    <v>       0.24340323       0.24482126       0.62394200 </v>
    <v>       0.25334949       0.75309938       0.12573038 </v>
    <v>       0.24569264       0.74702084       0.62547767 </v>
    <v>       0.75371075       0.25546864       0.12454013 </v>
    <v>       0.73229466       0.23319646       0.63115687 </v>
    <v>       0.76386183       0.76357894       0.12704543 </v>
    <v>       0.73708077       0.73391969       0.62228902 </v>
   </varray>
  </structure>
  <varray name="forces" >
   <v>      -0.01098155      -0.00941068       0.01323827 </v>
   <v>       0.00716335      -0.01223782      -0.00529532 </v>
   <v>       0.01339307       0.00337636       0.00156441 </v>
   <v>      -0.00425153       0.00667085       0.02486245 </v>
   <v>       0.02018524       0.00259650       0.01645370 </v>
   <v>      -0.02028471      -0.00000998      -0.00682827 </v>
   <v>       0.01004588       0.00077789      -0.00697697 </v>
   <v>       0.00290638      -0.00537783       0.01259256 </v>
   <v>      -0.01069970       0.00307194       0.01000894 </v>
   <v>      -0.00715211      -0.00320090      -0.00465649 </v>
   <v>       0.03129742       0.00859553      -0.00821191 </v>
   <v>      -0.00353052       0.00077917      -0.00159095 </v>
   <v>       0.00096196      -0.00580241      -0.00392857 </v>
   <v>       0.00150469       0.00737842      -0.00423322 </v>
   <v>      -0.01069373       0.01207255       0.00398981 </v>
   <v>       0.00758621      -0.00730205      -0.01502456 </v>
   <v>      -0.00908134      -0.00809148       0.00688733 </v>
   <v>      -0.00894539      -0.00583613       0.00594846 </v>
   <v>      -0.00296983       0.00120584      -0.00696459 </v>
   <v>       0.00886584      -0.00246439       0.00187570 </v>
   <v>       0.00330158      -0.00031576       0.00259856 </v>
   <v>       0.01226444       0.00138547      -0.00528731 </v>
   <v>      -0.00867690       0.00188696       0.01123377 </v>
   <v>      -0.00231677       0.00256739      -0.00095271 </v>
   <v>       0.00226063      -0.01045909       0.00548649 </v>
   <v>      -0.00321838      -0.00003493      -0.00360769 </v>
   <v>      -0.00752896       0.00650478       0.00139282 </v>
   <v>       0.00606727      -0.00265770      -0.00846527 </v>
   <v>       0.00268562       0.01378500      -0.01044125 </v>
   <v>      -0.00506767       0.00511349      -0.01012660 </v>
   <v>       0.01188238      -0.01520564      -0.00739606 </v>
   <v>      -0.01476947      -0.00007151      -0.00788561 </v>
   <v>       0.00182524      -0.02125310       0.00728911 </v>
   <v>      -0.00582968       0.00487263      -0.01875955 </v>
   <v>      -0.01514881       0.01762017       0.00260582 </v>
   <v>      -0.02697578       0.01672380      -0.00573015 </v>
   <v>       0.00786401      -0.00898466       0.01686397 </v>
   <v>      -0.00964567      -0.00625765       0.00690364 </v>
   <v>       0.00270435       0.02580648       0.08482796 </v>
   <v>      -0.00903254      -0.01038056      -0.03495314 </v>
   <v>       0.00144183      -0.00872245      -0.01384510 </v>
   <v>       0.02731695      -0.00127185       0.01199298 </v>
   <v>       0.01530061      -0.00390081      -0.00249582 </v>
   <v>       0.00661758      -0.00107241      -0.01477297 </v>
   <v>       0.01059483      -0.01184198       0.01563214 </v>
   <v>      -0.03131388      -0.00664719      -0.08392859 </v>
   <v>       0.02773187      -0.00939172       0.00735709 </v>
   <v>      -0.01593809      -0.02075932       0.01423480 </v>
   <v>       0.00593538      -0.00227175       0.05547150 </v>
   <v>      -0.02231824       0.00790691       0.01878930 </v>
   <v>      -0.00686616       0.04122060       0.01115729 </v>
   <v>      -0.00495210       0.02609241      -0.06067612 </v>
   <v>       0.00414116      -0.00857829       0.02459573 </v>
   <v>       0.01927176       0.02729303      -0.01795709 </v>
   <v>       0.00710827       0.00089396      -0.00356767 </v>
   <v>      -0.02112827       0.00059199       0.00751174 </v>
   <v>       0.00761387       0.00417046       0.00423952 </v>
   <v>      -0.00584934       0.00516889       0.00751941 </v>
   <v>       0.00275397       0.00372634      -0.01144385 </v>
   <v>       0.00198869      -0.01409561       0.01141418 </v>
   <v>       0.00935949       0.00263400      -0.00220481 </v>
   <v>      -0.00174389      -0.00590078      -0.01249244 </v>
   <v>      -0.02089531      -0.01571273      -0.00602936 </v>
   <v>      -0.00405600       0.00763953       0.00662543 </v>
   <v>       0.04588605       0.00446316       0.00026414 </v>
   <v>      -0.00746996      -0.01348705      -0.00557683 </v>
   <v>       0.02363359      -0.01243722      -0.01162578 </v>
   <v>      -0.01523924      -0.00673816      -0.00078821 </v>
[...]
       <r>   -16.2525     0.0000    32.0000 </r>
       <r>   -16.1001     0.0000    32.0000 </r>
       <r>   -15.9478     0.0000    32.0000 </r>
       <r>   -15.7955     0.0000    32.0000 </r>
       <r>   -15.6432     0.0000    32.0000 </r>
       <r>   -15.4909     0.0000    32.0000 </r>
       <r>   -15.3385     0.0006    32.0001 </r>
       <r>   -15.1862     5.3754    32.8189 </r>
       <r>   -15.0339    20.3921    35.9250 </r>
       <r>   -14.8816    38.9748    41.8615 </r>
       <r>   -14.7293    48.2831    49.2160 </r>
       <r>   -14.5769    38.6568    55.1041 </r>
       <r>   -14.4246    37.0407    60.7461 </r>
       <r>   -14.2723    33.2673    65.8134 </r>
       <r>   -14.1200    76.8219    77.5148 </r>
       <r>   -13.9677   108.6742    94.0679 </r>
       <r>   -13.8153    96.3785   108.7482 </r>
       <r>   -13.6630    70.8496   119.5399 </r>
       <r>   -13.5107    22.4727   122.9629 </r>
       <r>   -13.3584     6.7807   123.9958 </r>
       <r>   -13.2061     0.0277   124.0000 </r>
       <r>   -13.0538     0.0000   124.0000 </r>
       <r>   -12.9014     0.0000   124.0000 </r>
       <r>   -12.7491     0.1160   124.0177 </r>
       <r>   -12.5968    31.9836   128.8894 </r>
       <r>   -12.4445   134.4142   149.3632 </r>
       <r>   -12.2922   150.7756   172.3292 </r>
       <r>   -12.1398   126.4624   191.5918 </r>
       <r>   -11.9875   116.7637   209.3771 </r>
       <r>   -11.8352    61.1746   218.6951 </r>
       <r>   -11.6829     8.5659   219.9999 </r>
       <r>   -11.5306     0.0007   220.0000 </r>
       <r>   -11.3782     0.0000   220.0000 </r>
       <r>   -11.2259     0.0000   220.0000 </r>
       <r>   -11.0736     0.0000   220.0000 </r>
       <r>   -10.9213     0.0000   220.0000 </r>
       <r>   -10.7690     0.0000   220.0000 </r>
       <r>   -10.6167     0.0000   220.0000 </r>
       <r>   -10.4643     0.0000   220.0000 </r>
       <r>   -10.3120     0.0000   220.0000 </r>
       <r>   -10.1597     0.0000   220.0000 </r>
       <r>   -10.0074     0.0000   220.0000 </r>
       <r>    -9.8551     0.0000   220.0000 </r>
       <r>    -9.7027     0.0000   220.0000 </r>
       <r>    -9.5504     0.0000   220.0000 </r>
       <r>    -9.3981     0.0000   220.0000 </r>
       <r>    -9.2458     0.0000   220.0000 </r>
       <r>    -9.0935     0.0000   220.0000 </r>
       <r>    -8.9411     0.0000   220.0000 </r>
       <r>    -8.7888     0.0000   220.0000 </r>
       <r>    -8.6365     0.0000   220.0000 </r>
       <r>    -8.4842     0.0000   220.0000 </r>
       <r>    -8.3319     0.0000   220.0000 </r>
       <r>    -8.1796     0.0000   220.0000 </r>
       <r>    -8.0272     0.0000   220.0000 </r>
       <r>    -7.8749     0.0000   220.0000 </r>
       <r>    -7.7226     0.0000   220.0000 </r>
       <r>    -7.5703     0.0000   220.0000 </r>
       <r>    -7.4180     0.0000   220.0000 </r>
       <r>    -7.2656     0.0000   220.0000 </r>
       <r>    -7.1133     0.0000   220.0000 </r>
       <r>    -6.9610     0.0000   220.0000 </r>
       <r>    -6.8087     0.0000   220.0000 </r>
       <r>    -6.6564     0.0000   220.0000 </r>
       <r>    -6.5040     0.0000   220.0000 </r>
       <r>    -6.3517     0.0000   220.0000 </r>
       <r>    -6.1994     0.0000   220.0000 </r>
       <r>    -6.0471     0.0000   220.0000 </r>
       <r>    -5.8948     0.0000   220.0000 </r>
       <r>    -5.7424     0.0000   220.0000 </r>
       <r>    -5.5901     0.0000   220.0000 </r>
       <r>    -5.4378     0.0000   220.0000 </r>
       <r>    -5.2855     0.0000   220.0000 </r>
       <r>    -5.1332     0.0000   220.0000 </r>
       <r>    -4.9809     0.0000   220.0000 </r>
       <r>    -4.8285     0.0000   220.0000 </r>
       <r>    -4.6762     0.0000   220.0000 </r>
       <r>    -4.5239     0.0000   220.0000 </r>
       <r>    -4.3716     0.0000   220.0000 </r>
       <r>    -4.2193     0.0000   220.0000 </r>
       <r>    -4.0669     0.0000   220.0000 </r>
       <r>    -3.9146     0.0000   220.0000 </r>
       <r>    -3.7623     0.0000   220.0000 </r>
       <r>    -3.6100     0.0000   220.0000 </r>
       <r>    -3.4577     0.0000   220.0000 </r>
       <r>    -3.3053     0.0000   220.0000 </r>
       <r>    -3.1530     0.0000   220.0000 </r>
       <r>    -3.0007     0.0000   220.0000 </r>
       <r>    -2.8484     0.0000   220.0000 </r>
       <r>    -2.6961     0.0000   220.0000 </r>
       <r>    -2.5438     0.0000   220.0000 </r>
       <r>    -2.3914     0.1931   220.0294 </r>
       <r>    -2.2391     9.9928   221.5515 </r>
       <r>    -2.0868    25.1361   225.3802 </r>
       <r>    -1.9345    34.3636   230.6144 </r>
       <r>    -1.7822    34.2953   235.8382 </r>
       <r>    -1.6298    52.9611   243.9052 </r>
       <r>    -1.4775    48.1897   251.2454 </r>
       <r>    -1.3252    57.6611   260.0283 </r>
       <r>    -1.1729    71.9451   270.9869 </r>
       <r>    -1.0206    80.2951   283.2173 </r>
       <r>    -0.8682    75.1377   294.6622 </r>
       <r>    -0.7159    75.4756   306.1586 </r>
       <r>    -0.5636    91.5559   320.1043 </r>
       <r>    -0.4113   112.4402   337.2310 </r>
       <r>    -0.2590    81.9790   349.7180 </r>
       <r>    -0.1067    56.2777   358.2902 </r>
       <r>     0.0457    44.8453   365.1209 </r>
       <r>     0.1980    50.7808   372.8558 </r>
       <r>     0.3503    46.8473   379.9916 </r>
       <r>     0.5026    53.5254   388.1445 </r>
       <r>     0.6549    55.5300   396.6028 </r>
       <r>     0.8073    49.2277   404.1011 </r>
       <r>     0.9596    49.8119   411.6884 </r>
       <r>     1.1119    59.6815   420.7790 </r>
       <r>     1.2642    75.5010   432.2792 </r>
       <r>     1.4165    85.0156   445.2287 </r>
       <r>     1.5689    85.5556   458.2604 </r>
       <r>     1.7212    76.1010   469.8520 </r>
       <r>     1.8735    67.5478   480.1408 </r>
       <r>     2.0258    48.1757   487.4789 </r>
       <r>     2.1781    38.0799   493.2792 </r>
       <r>     2.3305    13.5253   495.3393 </r>
       <r>     2.4828     4.3050   495.9951 </r>
       <r>     2.6351     0.0324   496.0000 </r>
       <r>     2.7874     0.0000   496.0000 </r>
       <r>     2.9397     0.0000   496.0000 </r>
       <r>     3.0920     0.0000   496.0000 </r>
       <r>     3.2444     0.0000   496.0000 </r>
       <r>     3.3967     0.0000   496.0000 </r>
       <r>     3.5490     0.0000   496.0000 </r>
       <r>     3.7013     0.0000   496.0000 </r>
       <r>     3.8536     0.0000   496.0000 </r>
       <r>     4.0060     0.0000   496.0000 </r>
       <r>     4.1583     0.0000   496.0000 </r>
       <r>     4.3106     0.0010   496.0001 </r>
       <r>     4.4629     3.8603   496.5881 </r>
       <r>     4.6152    24.4143   500.3069 </r>
       <r>     4.7676    41.8673   506.6841 </r>
       <r>     4.9199    34.3602   511.9178 </r>
       <r>     5.0722    44.5395   518.7020 </r>
       <r>     5.2245    52.4959   526.6981 </r>
       <r>     5.3768    53.4123   534.8338 </r>
       <r>     5.5291    64.6304   544.6782 </r>
       <r>     5.6815    72.6685   555.7470 </r>
       <r>     5.8338    66.9407   565.9434 </r>
       <r>     5.9861    84.2526   578.7766 </r>
       <r>     6.1384   100.1694   594.0343 </r>
       <r>     6.2907    69.2767   604.5865 </r>
       <r>     6.4431    49.9970   612.2020 </r>
       <r>     6.5954    25.1310   616.0299 </r>
       <r>     6.7477    15.4840   618.3884 </r>
       <r>     6.9000    11.1304   620.0838 </r>
       <r>     7.0523    20.6025   623.2219 </r>
       <r>     7.2047    19.6739   626.2186 </r>
       <r>     7.3570    12.8380   628.1741 </r>
       <r>     7.5093    13.1613   630.1788 </r>
       <r>     7.6616    16.5453   632.6990 </r>
       <r>     7.8139    13.1689   634.7048 </r>
       <r>     7.9662    20.5210   637.8306 </r>
       <r>     8.1186    29.2387   642.2842 </r>
       <r>     8.2709    24.6285   646.0356 </r>
       <r>     8.4232    24.2679   649.7320 </r>
       <r>     8.5755    24.5201   653.4669 </r>
       <r>     8.7278    22.6264   656.9133 </r>
       <r>     8.8802    35.0234   662.2481 </r>
       <r>     9.0325    34.8192   667.5517 </r>
       <r>     9.1848    41.2622   673.8367 </r>
       <r>     9.3371    33.3742   678.9202 </r>
       <r>     9.4894    41.7281   685.2762 </r>
       <r>     9.6418    45.8531   692.2605 </r>
       <r>     9.7941    53.3755   700.3906 </r>
       <r>     9.9464    61.0384   709.6879 </r>
       <r>    10.0987    70.1243   720.3691 </r>
       <r>    10.2510    64.1654   730.1427 </r>
       <r>    10.4034    58.8956   739.1137 </r>
       <r>    10.5557    56.7466   747.7572 </r>
       <r>    10.7080    59.7971   756.8655 </r>
       <r>    10.8603    54.6640   765.1918 </r>
       <r>    11.0126    18.4199   767.9975 </r>
       <r>    11.1649     0.0163   768.0000 </r>
       <r>    11.3173     0.0000   768.0000 </r>
       <r>    11.4696     0.0000   768.0000 </r>
       <r>    11.6219     0.0000   768.0000 </r>
       <r>    11.7742     0.0000   768.0000 </r>
       <r>    11.9265     0.0000   768.0000 </r>
       <r>    12.0789     0.0000   768.0000 </r>
       <r>    12.2312     0.0000   768.0000 </r>
       <r>    12.3835     0.0000   768.0000 </r>
       <r>    12.5358     0.0000   768.0000 </r>
       <r>    12.6881     0.0000   768.0000 </r>
       <r>    12.8405     0.0000   768.0000 </r>
       <r>    12.9928     0.0000   768.0000 </r>
      </set>
     </set>
    </array>
   </total>
  </dos>
 </calculation>
 <structure name="finalpos" >
  <crystal>
   <varray name="basis" >
    <v>      11.22494289       0.01862336       0.00006611 </v>
    <v>       0.01861459      11.22320539      -0.00359461 </v>
    <v>       0.00004925      -0.00514376      15.90699738 </v>
   </varray>
   <i name="volume">   2003.95525615 </i>
   <varray name="rec_basis" >
    <v>       0.08908756      -0.00014776      -0.00000032 </v>
    <v>      -0.00014783       0.08910136       0.00002881 </v>
    <v>      -0.00000040       0.00002014       0.06286542 </v>
   </varray>
  </crystal>
  <varray name="positions" >
   <v>       0.00012168       0.25591064       0.12411714 </v>
   <v>       0.00571808       0.24995852       0.61944311 </v>
   <v>       0.99958475       0.74119725       0.11813743 </v>
   <v>       0.99768658       0.74810122       0.62500399 </v>
   <v>       0.50146946       0.24923638       0.12479279 </v>
   <v>       0.49526279       0.24777775       0.61796064 </v>
   <v>       0.50304516       0.75511775       0.11856478 </v>
   <v>       0.50226952       0.75260018       0.62893008 </v>
   <v>       0.99860260       0.25458673       0.37658540 </v>
   <v>       0.00488131       0.25207273       0.87999807 </v>
   <v>       0.99506631       0.74021070       0.37711021 </v>
   <v>       0.99522646       0.74996302       0.87758129 </v>
   <v>       0.50376673       0.24462230       0.37701969 </v>
   <v>       0.49475263       0.25225863       0.88109391 </v>
   <v>       0.50564640       0.75421196       0.37221003 </v>
   <v>       0.50348508       0.75174349       0.87868221 </v>
   <v>       0.25872960       0.00467788       0.12138673 </v>
   <v>       0.25283075       0.00597835       0.62399387 </v>
   <v>       0.24696146       0.49581086       0.12166139 </v>
   <v>       0.24596542       0.49455392       0.62424881 </v>
   <v>       0.74743757       0.00103823       0.12201573 </v>
   <v>       0.74785809       0.00091563       0.62310849 </v>
   <v>       0.75466188       0.49857611       0.12372583 </v>
   <v>       0.75447790       0.49884646       0.62600770 </v>
   <v>       0.25944435       0.00893942       0.37410347 </v>
   <v>       0.25168088       0.00473789       0.87687183 </v>
   <v>       0.24253651       0.49035387       0.37562507 </v>
   <v>       0.24774414       0.49917615       0.87714646 </v>
   <v>       0.74538426       0.00865611       0.37512266 </v>
   <v>       0.74722364       0.99704299       0.87943997 </v>
   <v>       0.75904567       0.49039290       0.37333872 </v>
   <v>       0.74982884       0.50711052       0.87909223 </v>
   <v>      -0.00009726       0.99870873       0.00324790 </v>
   <v>       0.00278172       0.00076109       0.49551822 </v>
   <v>       0.49880262       0.50077812       0.00209883 </v>
   <v>       0.25027453       0.25091674       0.00096045 </v>
   <v>       0.24924524       0.24897499       0.49857355 </v>
   <v>       0.25037272       0.75084155       0.99634607 </v>
   <v>       0.25109170       0.74961630       0.50952331 </v>
   <v>       0.74945730       0.24974700       0.00014133 </v>
   <v>       0.74743641       0.24932723       0.50148686 </v>
   <v>       0.75169962       0.75169089       0.00274930 </v>
   <v>       0.75678613       0.76041105       0.49906448 </v>
   <v>       0.25342418       0.25239482       0.25015958 </v>
   <v>       0.25060048       0.24939922       0.74958659 </v>
   <v>       0.25003951       0.75076349       0.24153252 </v>
   <v>       0.24868880       0.74955053       0.75378456 </v>
   <v>       0.75234501       0.24816406       0.24850428 </v>
   <v>       0.76352913       0.25807249       0.75026230 </v>
   <v>       0.74807527       0.75091451       0.75027618 </v>
   <v>       0.00082353       0.99977108       0.74975887 </v>
   <v>       0.00036024       0.50186502       0.25035640 </v>
   <v>       0.00465645       0.50602132       0.75012555 </v>
   <v>       0.50418015       0.99978708       0.25021814 </v>
   <v>       0.50139588       0.50080598       0.25463281 </v>
   <v>       0.49949967       0.50125401       0.74841563 </v>
   <v>      -0.00019118       0.49955910       0.99890302 </v>
   <v>       0.99816654       0.49719841       0.50027119 </v>
   <v>       0.50141001       0.00210176       0.99785905 </v>
   <v>       0.49960415       0.99819946       0.50033939 </v>
   <v>       0.48889459       0.49303091       0.49891451 </v>
   <v>       0.73686113       0.74064071       0.24867912 </v>
   <v>       0.01067652       0.01135529       0.25097518 </v>
   <v>       0.49064062       0.98766075       0.75014596 </v>
   <v>       0.11553982       0.14082141       0.24986208 </v>
   <v>       0.10694629       0.14228429       0.74978826 </v>
   <v>       0.11983364       0.63623442       0.25948471 </v>
   <v>       0.10677936       0.64614704       0.75081805 </v>
   <v>       0.61192460       0.14080486       0.24811471 </v>
   <v>       0.60624864       0.63958520       0.23903152 </v>
   <v>       0.60898987       0.63911010       0.75445933 </v>
   <v>       0.38943069       0.36641546       0.26059928 </v>
   <v>       0.38878374       0.36279951       0.74337726 </v>
   <v>       0.38087325       0.86258027       0.26186164 </v>
   <v>       0.38836670       0.85357821       0.75183546 </v>
   <v>       0.88584156       0.36526454       0.25061409 </v>
   <v>       0.89337496       0.35799964       0.74466697 </v>
   <v>       0.89127008       0.85697838       0.74513264 </v>
   <v>       0.36470843       0.11530968       0.24917325 </v>
   <v>       0.36424562       0.11602769       0.74880476 </v>
   <v>       0.35968026       0.61877805       0.26802536 </v>
   <v>       0.35606349       0.60786553       0.74768202 </v>
   <v>       0.85938937       0.10842388       0.24739877 </v>
   <v>       0.85109456       0.10470033       0.74942200 </v>
   <v>       0.87185150       0.62812319       0.25120305 </v>
   <v>       0.85850065       0.60735916       0.74948222 </v>
   <v>       0.13833122       0.38794624       0.24908955 </v>
   <v>       0.14190700       0.39257048       0.74865273 </v>
   <v>       0.13247170       0.87639795       0.26467009 </v>
   <v>       0.14320360       0.89261439       0.75048136 </v>
   <v>       0.63822969       0.39007813       0.24856477 </v>
   <v>       0.63534545       0.37984811       0.74981164 </v>
   <v>       0.64688336       0.89265044       0.25126316 </v>
   <v>       0.64381026       0.89171174       0.74794491 </v>
   <v>       0.36208400       0.38825973       0.99617270 </v>
   <v>       0.36273287       0.38359178       0.50104080 </v>
   <v>       0.36230592       0.88663111       0.99363232 </v>
   <v>       0.35679744       0.88383663       0.49199899 </v>
   <v>       0.86055953       0.38417678       0.99424221 </v>
   <v>       0.86647776       0.37512390       0.51004103 </v>
   <v>       0.86499053       0.88746161       0.99516937 </v>
   <v>       0.86438280       0.88310982       0.50715576 </v>
   <v>       0.13604088       0.11242948       0.00617522 </v>
   <v>       0.13298777       0.11237425       0.49222991 </v>
   <v>       0.13920116       0.61574253       0.00303519 </v>
   <v>       0.13619900       0.62318296       0.48459658 </v>
   <v>       0.63753274       0.11646219       0.00683390 </v>
   <v>       0.63626967       0.11375313       0.49662597 </v>
   <v>       0.63632209       0.61458480       0.00691686 </v>
   <v>       0.11411709       0.36144937       0.00195479 </v>
   <v>       0.11636531       0.36367358       0.49937197 </v>
   <v>       0.11378444       0.86253378       0.99941186 </v>
   <v>       0.11516132       0.86143046       0.48864960 </v>
   <v>       0.61168711       0.36508475       0.00114365 </v>
   <v>       0.61962654       0.37120453       0.50237445 </v>
   <v>       0.61578300       0.86315419       0.99841238 </v>
   <v>       0.60712146       0.84663934       0.50134046 </v>
   <v>       0.38452359       0.13836520       0.00141531 </v>
   <v>       0.38234318       0.13522373       0.49959568 </v>
   <v>       0.38833764       0.63964634       0.99949900 </v>
   <v>       0.38591985       0.64119044       0.49047010 </v>
   <v>       0.88846049       0.13634336       0.00215560 </v>
   <v>       0.88510407       0.13155139       0.50194374 </v>
   <v>       0.88495744       0.63712436       0.99910499 </v>
   <v>       0.86282285       0.62267075       0.49834939 </v>
   <v>       0.99399179       0.98043986       0.12988486 </v>
   <v>       0.00835490       0.99816132       0.62288810 </v>
   <v>       0.99895327       0.50124627       0.12718634 </v>
   <v>       0.00805456       0.50975108       0.62470231 </v>
   <v>       0.49446169       0.99067844       0.12773766 </v>
   <v>       0.50654564       0.00793737       0.62804121 </v>
   <v>       0.48541389       0.49803227       0.12722196 </v>
   <v>       0.51152322       0.51764093       0.62074886 </v>
   <v>       0.97782798       0.98735957       0.37203552 </v>
   <v>       0.00240377       0.00136808       0.87468207 </v>
   <v>       0.99445855       0.49320610       0.37459045 </v>
   <v>       0.00247695       0.49943429       0.87237652 </v>
   <v>       0.50325253       0.00256736       0.37391702 </v>
   <v>       0.51368699       0.01780843       0.86890284 </v>
   <v>       0.52627481       0.51478669       0.37926077 </v>
   <v>       0.49966790       0.50153389       0.87473561 </v>
   <v>       0.24930431       0.24996005       0.37460370 </v>
   <v>       0.24761718       0.24926962       0.87458673 </v>
   <v>       0.24746203       0.74535934       0.87435468 </v>
   <v>       0.75209345       0.25149474       0.37532470 </v>
   <v>       0.73828628       0.23843789       0.87110756 </v>
   <v>       0.74749902       0.74939196       0.37546201 </v>
   <v>       0.75021797       0.74807166       0.87445970 </v>
   <v>       0.25711865       0.25666351       0.12638654 </v>
   <v>       0.24374099       0.24533116       0.62365867 </v>
   <v>       0.25506907       0.75349761       0.12557130 </v>
   <v>       0.24536728       0.74814738       0.62556710 </v>
   <v>       0.75354536       0.25633232       0.12481540 </v>
   <v>       0.73117002       0.23314895       0.63111876 </v>
   <v>       0.76462040       0.76406456       0.12700414 </v>
   <v>       0.73769271       0.73420253       0.62216062 </v>
  </varray>
 </structure>
</modeling>
