       N       E                     dE             d eps       ncg     rms          rms(c)
DAV:   1    -0.988269952460E+03   -0.98827E+03   -0.22049E-03 14000   0.122E-01    0.229E-01
RMM:   2    -0.988269979645E+03   -0.27185E-04   -0.13255E-03 10312   0.460E-02    0.516E-01
RMM:   3    -0.988269892435E+03    0.87210E-04   -0.36110E-04  8371   0.265E-02    0.171E-01
RMM:   4    -0.988269886117E+03    0.63189E-05   -0.68648E-05  7090   0.101E-02    0.977E-02
RMM:   5    -0.988269886673E+03   -0.55616E-06   -0.18966E-05  6221   0.562E-03    0.683E-02
RMM:   6    -0.988269886962E+03   -0.28968E-06   -0.83368E-06  5718   0.456E-03    0.491E-02
RMM:   7    -0.988269888053E+03   -0.10908E-05   -0.46497E-06  4793   0.316E-03    0.321E-02
RMM:   8    -0.988269889902E+03   -0.18487E-05   -0.31349E-06  4421   0.283E-03
   1 F= -.98826989E+03 E0= -.98825481E+03  d E =-.988270E+03  mag=   114.7477
       N       E                     dE             d eps       ncg     rms          rms(c)
DAV:   1    -0.988268419621E+03    0.14684E-02   -0.72958E-01 12864   0.101E+00    0.485E-01
RMM:   2    -0.988271842794E+03   -0.34232E-02   -0.21246E-02 12562   0.208E-01    0.343E-01
RMM:   3    -0.988272244287E+03   -0.40149E-03   -0.13357E-03 12229   0.624E-02    0.171E-01
RMM:   4    -0.988272179275E+03    0.65011E-04   -0.14369E-04  8090   0.182E-02    0.125E-01
RMM:   5    -0.988272141589E+03    0.37686E-04   -0.12288E-04  7418   0.150E-02    0.709E-02
RMM:   6    -0.988272143978E+03   -0.23893E-05   -0.57166E-05  7334   0.122E-02    0.450E-02
RMM:   7    -0.988272147727E+03   -0.37488E-05   -0.20904E-05  7184   0.797E-03    0.234E-02
RMM:   8    -0.988272150504E+03   -0.27765E-05   -0.86684E-06  6778   0.481E-03
   2 F= -.98827215E+03 E0= -.98825705E+03  d E =-.226060E-02  mag=   114.7383
       N       E                     dE             d eps       ncg     rms          rms(c)
DAV:   1    -0.988271852979E+03    0.29475E-03   -0.86640E-02 12464   0.347E-01    0.168E-01
RMM:   2    -0.988272266495E+03   -0.41352E-03   -0.25599E-03 12171   0.721E-02    0.122E-01
RMM:   3    -0.988272313103E+03   -0.46608E-04   -0.13162E-04  8129   0.236E-02    0.637E-02
RMM:   4    -0.988272311506E+03    0.15967E-05   -0.33128E-05  7130   0.974E-03    0.432E-02
RMM:   5    -0.988272310346E+03    0.11595E-05   -0.24135E-05  6977   0.692E-03    0.370E-02
RMM:   6    -0.988272311496E+03   -0.11500E-05   -0.12532E-05  6539   0.600E-03    0.182E-02
RMM:   7    -0.988272313504E+03   -0.20074E-05   -0.54239E-06  5870   0.334E-03    0.895E-03
RMM:   8    -0.988272314786E+03   -0.12824E-05   -0.18507E-06  4226   0.271E-03
   3 F= -.98827231E+03 E0= -.98825721E+03  d E =-.242488E-02  mag=   114.7333
       N       E                     dE             d eps       ncg     rms          rms(c)
DAV:   1    -0.988272349948E+03   -0.36444E-04   -0.41991E-01 12640   0.773E-01    0.268E-01
RMM:   2    -0.988273830754E+03   -0.14808E-02   -0.11922E-02 12583   0.155E-01    0.177E-01
RMM:   3    -0.988273947798E+03   -0.11704E-03   -0.70375E-04 10538   0.454E-02    0.107E-01
RMM:   4    -0.988273927234E+03    0.20564E-04   -0.83873E-05  7335   0.149E-02    0.682E-02
RMM:   5    -0.988273911281E+03    0.15953E-04   -0.57866E-05  7255   0.106E-02    0.407E-02
RMM:   6    -0.988273913167E+03   -0.18856E-05   -0.28843E-05  7133   0.801E-03    0.308E-02
RMM:   7    -0.988273914907E+03   -0.17396E-05   -0.12150E-05  6817   0.590E-03    0.156E-02
RMM:   8    -0.988273916329E+03   -0.14226E-05   -0.58788E-06  5854   0.377E-03
   4 F= -.98827392E+03 E0= -.98825880E+03  d E =-.160154E-02  mag=   114.7242
       N       E                     dE             d eps       ncg     rms          rms(c)
DAV:   1    -0.988268546181E+03    0.53687E-02   -0.17841E+00 12584   0.159E+00    0.551E-01
RMM:   2    -0.988274834339E+03   -0.62882E-02   -0.50608E-02 12586   0.319E-01    0.362E-01
RMM:   3    -0.988275355419E+03   -0.52108E-03   -0.32516E-03 13110   0.932E-02    0.214E-01
RMM:   4    -0.988275245784E+03    0.10963E-03   -0.35036E-04  9321   0.256E-02    0.138E-01
RMM:   5    -0.988275167726E+03    0.78058E-04   -0.22033E-04  7949   0.187E-02    0.782E-02
RMM:   6    -0.988275168243E+03   -0.51700E-06   -0.85067E-05  7394   0.142E-02    0.521E-02
RMM:   7    -0.988275173552E+03   -0.53088E-05   -0.36043E-05  7256   0.976E-03    0.260E-02
RMM:   8    -0.988275175974E+03   -0.24224E-05   -0.16934E-05  7190   0.683E-03
   5 F= -.98827518E+03 E0= -.98826003E+03  d E =-.286119E-02  mag=   114.7062
       N       E                     dE             d eps       ncg     rms          rms(c)
DAV:   1    -0.988274658675E+03    0.51488E-03   -0.49836E-01 12576   0.834E-01    0.292E-01
RMM:   2    -0.988276427496E+03   -0.17688E-02   -0.13555E-02 12679   0.161E-01    0.188E-01
RMM:   3    -0.988276570308E+03   -0.14281E-03   -0.78588E-04 10848   0.478E-02    0.102E-01
RMM:   4    -0.988276545658E+03    0.24650E-04   -0.10772E-04  7460   0.164E-02    0.692E-02
RMM:   5    -0.988276535820E+03    0.98380E-05   -0.57520E-05  7254   0.109E-02    0.442E-02
RMM:   6    -0.988276537449E+03   -0.16290E-05   -0.30898E-05  7156   0.890E-03    0.404E-02
RMM:   7    -0.988276538958E+03   -0.15090E-05   -0.17018E-05  7014   0.712E-03    0.159E-02
RMM:   8    -0.988276540151E+03   -0.11928E-05   -0.76798E-06  6080   0.392E-03
   6 F= -.98827654E+03 E0= -.98826141E+03  d E =-.136418E-02  mag=   114.6936
       N       E                     dE             d eps       ncg     rms          rms(c)
DAV:   1    -0.988271269884E+03    0.52691E-02   -0.17035E+00 12600   0.154E+00    0.537E-01
RMM:   2    -0.988277273680E+03   -0.60038E-02   -0.45894E-02 12671   0.297E-01    0.345E-01
RMM:   3    -0.988277767634E+03   -0.49395E-03   -0.27997E-03 12863   0.879E-02    0.189E-01
RMM:   4    -0.988277671284E+03    0.96349E-04   -0.39785E-04  9619   0.277E-02    0.123E-01
RMM:   5    -0.988277623495E+03    0.47790E-04   -0.17991E-04  7680   0.173E-02    0.638E-02
RMM:   6    -0.988277625869E+03   -0.23741E-05   -0.66632E-05  7348   0.129E-02    0.593E-02
RMM:   7    -0.988277629328E+03   -0.34590E-05   -0.32146E-05  7250   0.971E-03    0.227E-02
RMM:   8    -0.988277631358E+03   -0.20304E-05   -0.16630E-05  7132   0.602E-03
   7 F= -.98827763E+03 E0= -.98826253E+03  d E =-.245538E-02  mag=   114.6721
       N       E                     dE             d eps       ncg     rms          rms(c)
DAV:   1    -0.988277523584E+03    0.10574E-03   -0.37996E-01 12928   0.729E-01    0.276E-01
RMM:   2    -0.988278670724E+03   -0.11471E-02   -0.11461E-02 12479   0.149E-01    0.265E-01
RMM:   3    -0.988278737253E+03   -0.66529E-04   -0.79458E-04 10910   0.486E-02    0.124E-01
RMM:   4    -0.988278721412E+03    0.15842E-04   -0.97742E-05  7423   0.152E-02    0.892E-02
RMM:   5    -0.988278707549E+03    0.13863E-04   -0.47337E-05  7227   0.105E-02    0.527E-02
RMM:   6    -0.988278706157E+03    0.13918E-05   -0.39392E-05  7132   0.865E-03    0.430E-02
RMM:   7    -0.988278708061E+03   -0.19039E-05   -0.16412E-05  7007   0.723E-03    0.219E-02
RMM:   8    -0.988278711224E+03   -0.31631E-05   -0.95903E-06  6647   0.455E-03
   8 F= -.98827871E+03 E0= -.98826365E+03  d E =-.107987E-02  mag=   114.6586
