       N       E                     dE             d eps       ncg     rms          rms(c)
DAV:   1    -0.108940941793E+04   -0.10894E+04   -0.13932E-01  6544   0.864E-01    0.300E-02
RMM:   2    -0.108940942166E+04   -0.37366E-05   -0.49542E-05  3567   0.149E-02    0.475E-02
RMM:   3    -0.108940942270E+04   -0.10366E-05   -0.15226E-05  3515   0.876E-03    0.126E-02
RMM:   4    -0.108940942562E+04   -0.29241E-05   -0.87085E-06  3402   0.498E-03    0.967E-03
RMM:   5    -0.108940942778E+04   -0.21559E-05   -0.56334E-06  3425   0.497E-03    0.762E-03
RMM:   6    -0.108940942889E+04   -0.11074E-05   -0.31515E-06  2508   0.284E-03    0.252E-03
RMM:   7    -0.108940942916E+04   -0.27314E-06   -0.17882E-06  2109   0.285E-03    0.260E-03
RMM:   8    -0.108940942937E+04   -0.20731E-06   -0.99552E-07  1628   0.215E-03
   1 F= -.10894094E+04 E0= -.10894094E+04  d E =-.108941E+04  mag=    50.0000
       N       E                     dE             d eps       ncg     rms          rms(c)
DAV:   1    -0.108941052685E+04   -0.10977E-02   -0.62525E-01  6208   0.946E-01    0.466E-01
RMM:   2    -0.108941166654E+04   -0.11397E-02   -0.19903E-02  6157   0.193E-01    0.371E-01
RMM:   3    -0.108941151361E+04    0.15293E-03   -0.12334E-03  6188   0.735E-02    0.184E-01
RMM:   4    -0.108941131964E+04    0.19398E-03   -0.53420E-04  5720   0.293E-02    0.118E-01
RMM:   5    -0.108941127227E+04    0.47366E-04   -0.11147E-04  3694   0.205E-02    0.568E-02
RMM:   6    -0.108941126861E+04    0.36563E-05   -0.58712E-05  3624   0.117E-02    0.309E-02
RMM:   7    -0.108941126742E+04    0.11947E-05   -0.20087E-05  3566   0.961E-03    0.247E-02
RMM:   8    -0.108941126645E+04    0.96840E-06   -0.13128E-05  3546   0.476E-03
   2 F= -.10894113E+04 E0= -.10894113E+04  d E =-.183708E-02  mag=    50.0000
       N       E                     dE             d eps       ncg     rms          rms(c)
DAV:   1    -0.108941126608E+04    0.13408E-05   -0.17393E-03  6552   0.503E-02    0.253E-02
RMM:   2    -0.108941126912E+04   -0.30404E-05   -0.50738E-05  3382   0.119E-02    0.230E-02
RMM:   3    -0.108941126951E+04   -0.39641E-06   -0.82000E-06  3281   0.624E-03    0.115E-02
RMM:   4    -0.108941126907E+04    0.44284E-06   -0.33628E-06  2875   0.332E-03    0.108E-02
RMM:   5    -0.108941126886E+04    0.20704E-06   -0.15782E-06  2644   0.266E-03    0.401E-03
RMM:   6    -0.108941126885E+04    0.14203E-07   -0.51854E-07  1258   0.183E-03    0.220E-03
RMM:   7    -0.108941126895E+04   -0.97250E-07   -0.56942E-08   872   0.159E-03    0.133E-03
RMM:   8    -0.108941126901E+04   -0.58106E-07   -0.20416E-09   674   0.158E-03
   3 F= -.10894113E+04 E0= -.10894113E+04  d E =-.183964E-02  mag=    50.0000
       N       E                     dE             d eps       ncg     rms          rms(c)
DAV:   1    -0.108941112031E+04    0.14864E-03   -0.69070E-01  6208   0.990E-01    0.297E-01
RMM:   2    -0.108941276061E+04   -0.16403E-02   -0.18292E-02  6166   0.187E-01    0.200E-01
RMM:   3    -0.108941281507E+04   -0.54468E-04   -0.11750E-03  6144   0.712E-02    0.130E-01
RMM:   4    -0.108941273916E+04    0.75912E-04   -0.21730E-04  3902   0.214E-02    0.858E-02
RMM:   5    -0.108941271292E+04    0.26244E-04   -0.10347E-04  3666   0.160E-02    0.635E-02
RMM:   6    -0.108941271581E+04   -0.28880E-05   -0.37661E-05  3559   0.120E-02    0.157E-02
RMM:   7    -0.108941271799E+04   -0.21819E-05   -0.17356E-05  3521   0.687E-03    0.103E-02
RMM:   8    -0.108941271918E+04   -0.11926E-05   -0.92671E-06  3423   0.579E-03
   4 F= -.10894127E+04 E0= -.10894127E+04  d E =-.145018E-02  mag=    50.0000
       N       E                     dE             d eps       ncg     rms          rms(c)
DAV:   1    -0.108941251130E+04    0.20669E-03   -0.15134E-01  6208   0.464E-01    0.139E-01
RMM:   2    -0.108941287874E+04   -0.36744E-03   -0.40792E-03  6172   0.876E-02    0.944E-02
RMM:   3    -0.108941288440E+04   -0.56568E-05   -0.20644E-04  3898   0.332E-02    0.618E-02
RMM:   4    -0.108941287215E+04    0.12241E-04   -0.69156E-05  3568   0.133E-02    0.459E-02
RMM:   5    -0.108941286916E+04    0.29910E-05   -0.35266E-05  3542   0.107E-02    0.441E-02
RMM:   6    -0.108941286985E+04   -0.68865E-06   -0.20652E-05  3502   0.676E-03    0.118E-02
RMM:   7    -0.108941287051E+04   -0.66006E-06   -0.81365E-06  3386   0.539E-03    0.656E-03
RMM:   8    -0.108941287104E+04   -0.53081E-06   -0.50284E-06  2685   0.328E-03
   5 F= -.10894129E+04 E0= -.10894129E+04  d E =-.160204E-02  mag=    50.0000
       N       E                     dE             d eps       ncg     rms          rms(c)
DAV:   1    -0.108941258728E+04    0.28324E-03   -0.61824E-01  6368   0.927E-01    0.241E-01
RMM:   2    -0.108941401980E+04   -0.14325E-02   -0.15964E-02  6185   0.168E-01    0.172E-01
RMM:   3    -0.108941404314E+04   -0.23339E-04   -0.97144E-04  5833   0.675E-02    0.101E-01
RMM:   4    -0.108941400471E+04    0.38423E-04   -0.23468E-04  3955   0.203E-02    0.829E-02
RMM:   5    -0.108941399319E+04    0.11522E-04   -0.64465E-05  3578   0.138E-02    0.434E-02
RMM:   6    -0.108941399592E+04   -0.27270E-05   -0.40795E-05  3546   0.105E-02    0.145E-02
RMM:   7    -0.108941399913E+04   -0.32147E-05   -0.17672E-05  3510   0.790E-03    0.905E-03
RMM:   8    -0.108941400167E+04   -0.25336E-05   -0.11828E-05  3431   0.546E-03
   6 F= -.10894140E+04 E0= -.10894140E+04  d E =-.113063E-02  mag=    50.0000
       N       E                     dE             d eps       ncg     rms          rms(c)
DAV:   1    -0.108941345781E+04    0.54133E-03   -0.34329E-01  6320   0.691E-01    0.180E-01
RMM:   2    -0.108941426388E+04   -0.80607E-03   -0.89456E-03  6191   0.125E-01    0.129E-01
RMM:   3    -0.108941427138E+04   -0.74971E-05   -0.50619E-04  5228   0.492E-02    0.758E-02
RMM:   4    -0.108941425148E+04    0.19898E-04   -0.12782E-04  3646   0.159E-02    0.682E-02
RMM:   5    -0.108941424758E+04    0.39042E-05   -0.42783E-05  3551   0.112E-02    0.355E-02
RMM:   6    -0.108941424946E+04   -0.18812E-05   -0.29797E-05  3523   0.829E-03    0.124E-02
RMM:   7    -0.108941425173E+04   -0.22691E-05   -0.12392E-05  3482   0.663E-03    0.849E-03
RMM:   8    -0.108941425319E+04   -0.14657E-05   -0.87132E-06  3220   0.440E-03
   7 F= -.10894143E+04 E0= -.10894143E+04  d E =-.138215E-02  mag=    50.0000
       N       E                     dE             d eps       ncg     rms          rms(c)
DAV:   1    -0.108941386083E+04    0.39090E-03   -0.59148E-01  6184   0.904E-01    0.239E-01
RMM:   2    -0.108941534821E+04   -0.14874E-02   -0.14947E-02  6284   0.161E-01    0.147E-01
RMM:   3    -0.108941539282E+04   -0.44615E-04   -0.84083E-04  5685   0.618E-02    0.928E-02
RMM:   4    -0.108941536161E+04    0.31217E-04   -0.17075E-04  3736   0.189E-02    0.722E-02
RMM:   5    -0.108941535102E+04    0.10582E-04   -0.58547E-05  3567   0.127E-02    0.432E-02
RMM:   6    -0.108941535087E+04    0.15716E-06   -0.36222E-05  3531   0.999E-03    0.135E-02
RMM:   7    -0.108941535232E+04   -0.14577E-05   -0.16509E-05  3474   0.742E-03    0.986E-03
RMM:   8    -0.108941535313E+04   -0.80308E-06   -0.97038E-06  3239   0.503E-03
   8 F= -.10894154E+04 E0= -.10894154E+04  d E =-.109993E-02  mag=    50.0000
       N       E                     dE             d eps       ncg     rms          rms(c)
DAV:   1    -0.108941343404E+04    0.19183E-02   -0.96325E-01  6176   0.115E+00    0.306E-01
RMM:   2    -0.108941585542E+04   -0.24214E-02   -0.24344E-02  6278   0.206E-01    0.188E-01
RMM:   3    -0.108941593369E+04   -0.78271E-04   -0.14055E-03  6064   0.787E-02    0.118E-01
RMM:   4    -0.108941588432E+04    0.49368E-04   -0.31245E-04  4308   0.234E-02    0.919E-02
RMM:   5    -0.108941586398E+04    0.20342E-04   -0.82532E-05  3626   0.154E-02    0.578E-02
RMM:   6    -0.108941586255E+04    0.14260E-05   -0.56542E-05  3570   0.120E-02    0.190E-02
RMM:   7    -0.108941586470E+04   -0.21529E-05   -0.23103E-05  3526   0.907E-03    0.865E-03
RMM:   8    -0.108941586565E+04   -0.94713E-06   -0.14562E-05  3401   0.593E-03
   9 F= -.10894159E+04 E0= -.10894159E+04  d E =-.161246E-02  mag=    50.0000
       N       E                     dE             d eps       ncg     rms          rms(c)
DAV:   1    -0.108941489620E+04    0.96850E-03   -0.83930E-01  6160   0.107E+00    0.274E-01
RMM:   2    -0.108941692331E+04   -0.20271E-02   -0.21008E-02  6255   0.191E-01    0.175E-01
RMM:   3    -0.108941697388E+04   -0.50572E-04   -0.12142E-03  5919   0.725E-02    0.104E-01
RMM:   4    -0.108941692047E+04    0.53412E-04   -0.29713E-04  4244   0.221E-02    0.779E-02
RMM:   5    -0.108941690329E+04    0.17182E-04   -0.74628E-05  3604   0.147E-02    0.475E-02
RMM:   6    -0.108941690435E+04   -0.10681E-05   -0.45358E-05  3562   0.110E-02    0.150E-02
RMM:   7    -0.108941690619E+04   -0.18329E-05   -0.19451E-05  3514   0.821E-03    0.821E-03
RMM:   8    -0.108941690709E+04   -0.90672E-06   -0.12419E-05  3364   0.545E-03
  10 F= -.10894169E+04 E0= -.10894169E+04  d E =-.104144E-02  mag=    50.0000
       N       E                     dE             d eps       ncg     rms          rms(c)
DAV:   1    -0.108941656596E+04    0.34023E-03   -0.19843E-01  6240   0.519E-01    0.133E-01
RMM:   2    -0.108941704987E+04   -0.48391E-03   -0.50118E-03  6279   0.937E-02    0.856E-02
RMM:   3    -0.108941705885E+04   -0.89824E-05   -0.26238E-04  4118   0.368E-02    0.512E-02
RMM:   4    -0.108941704889E+04    0.99569E-05   -0.76486E-05  3571   0.130E-02    0.452E-02
RMM:   5    -0.108941704650E+04    0.23905E-05   -0.27638E-05  3507   0.963E-03    0.252E-02
RMM:   6    -0.108941704661E+04   -0.10441E-06   -0.20964E-05  3488   0.635E-03    0.100E-02
RMM:   7    -0.108941704729E+04   -0.68470E-06   -0.81616E-06  3352   0.549E-03    0.621E-03
RMM:   8    -0.108941704769E+04   -0.39978E-06   -0.51569E-06  2612   0.320E-03
  11 F= -.10894170E+04 E0= -.10894170E+04  d E =-.118204E-02  mag=    50.0000
       N       E                     dE             d eps       ncg     rms          rms(c)
DAV:   1    -0.108941676729E+04    0.28000E-03   -0.40926E-01  6304   0.739E-01    0.177E-01
RMM:   2    -0.108941772508E+04   -0.95779E-03   -0.10342E-02  6208   0.136E-01    0.121E-01
RMM:   3    -0.108941773931E+04   -0.14230E-04   -0.58963E-04  5288   0.507E-02    0.774E-02
RMM:   4    -0.108941771612E+04    0.23190E-04   -0.12257E-04  3616   0.160E-02    0.620E-02
RMM:   5    -0.108941771027E+04    0.58433E-05   -0.44761E-05  3529   0.115E-02    0.419E-02
RMM:   6    -0.108941771246E+04   -0.21864E-05   -0.29385E-05  3489   0.841E-03    0.135E-02
RMM:   7    -0.108941771417E+04   -0.17133E-05   -0.12146E-05  3432   0.655E-03    0.111E-02
RMM:   8    -0.108941771528E+04   -0.11014E-05   -0.73794E-06  3022   0.406E-03
  12 F= -.10894177E+04 E0= -.10894177E+04  d E =-.667585E-03  mag=    50.0000
       N       E                     dE             d eps       ncg     rms          rms(c)
DAV:   1    -0.108941735895E+04    0.35522E-03   -0.21289E-01  6240   0.533E-01    0.128E-01
RMM:   2    -0.108941786198E+04   -0.50303E-03   -0.54116E-03  6215   0.973E-02    0.875E-02
RMM:   3    -0.108941786566E+04   -0.36842E-05   -0.27662E-04  4060   0.380E-02    0.575E-02
RMM:   4    -0.108941785753E+04    0.81290E-05   -0.76116E-05  3554   0.136E-02    0.543E-02
RMM:   5    -0.108941785520E+04    0.23313E-05   -0.29099E-05  3481   0.995E-03    0.285E-02
RMM:   6    -0.108941785623E+04   -0.10272E-05   -0.25186E-05  3439   0.655E-03    0.134E-02
RMM:   7    -0.108941785742E+04   -0.11932E-05   -0.84367E-06  3359   0.558E-03    0.710E-03
RMM:   8    -0.108941785819E+04   -0.77333E-06   -0.54200E-06  2624   0.320E-03
  13 F= -.10894179E+04 E0= -.10894179E+04  d E =-.810504E-03  mag=    50.0000
       N       E                     dE             d eps       ncg     rms          rms(c)
DAV:   1    -0.108941736832E+04    0.48911E-03   -0.41301E-01  6192   0.741E-01    0.201E-01
RMM:   2    -0.108941841060E+04   -0.10423E-02   -0.10147E-02  6241   0.132E-01    0.121E-01
RMM:   3    -0.108941844713E+04   -0.36535E-04   -0.57684E-04  5175   0.505E-02    0.698E-02
RMM:   4    -0.108941841902E+04    0.28112E-04   -0.13643E-04  3653   0.163E-02    0.452E-02
RMM:   5    -0.108941841466E+04    0.43558E-05   -0.43752E-05  3545   0.114E-02    0.358E-02
RMM:   6    -0.108941841589E+04   -0.12307E-05   -0.21899E-05  3492   0.796E-03    0.860E-03
RMM:   7    -0.108941841673E+04   -0.83786E-06   -0.11009E-05  3373   0.565E-03    0.709E-03
RMM:   8    -0.108941841710E+04   -0.37052E-06   -0.69506E-06  3053   0.429E-03
  14 F= -.10894184E+04 E0= -.10894184E+04  d E =-.558908E-03  mag=    50.0000
       N       E                     dE             d eps       ncg     rms          rms(c)
DAV:   1    -0.108941826323E+04    0.15350E-03   -0.85182E-02  6336   0.337E-01    0.914E-02
RMM:   2    -0.108941847962E+04   -0.21639E-03   -0.21126E-03  6191   0.600E-02    0.554E-02
RMM:   3    -0.108941848497E+04   -0.53564E-05   -0.10429E-04  3596   0.244E-02    0.325E-02
RMM:   4    -0.108941848161E+04    0.33644E-05   -0.38514E-05  3508   0.885E-03    0.321E-02
RMM:   5    -0.108941848088E+04    0.72380E-06   -0.12348E-05  3386   0.662E-03    0.148E-02
RMM:   6    -0.108941848055E+04    0.33592E-06   -0.97017E-06  3151   0.402E-03    0.806E-03
RMM:   7    -0.108941848076E+04   -0.21569E-06   -0.36860E-06  2784   0.378E-03    0.523E-03
RMM:   8    -0.108941848089E+04   -0.12772E-06   -0.21438E-06  1907   0.237E-03
  15 F= -.10894185E+04 E0= -.10894185E+04  d E =-.622697E-03  mag=    50.0000
       N       E                     dE             d eps       ncg     rms          rms(c)
DAV:   1    -0.108941772095E+04    0.75982E-03   -0.48576E-01  6176   0.803E-01    0.220E-01
RMM:   2    -0.108941890832E+04   -0.11874E-02   -0.11784E-02  6289   0.142E-01    0.136E-01
RMM:   3    -0.108941894771E+04   -0.39386E-04   -0.67748E-04  5415   0.552E-02    0.814E-02
RMM:   4    -0.108941891864E+04    0.29073E-04   -0.14690E-04  3678   0.173E-02    0.747E-02
RMM:   5    -0.108941891061E+04    0.80328E-05   -0.46526E-05  3548   0.114E-02    0.342E-02
RMM:   6    -0.108941890868E+04    0.19244E-05   -0.33666E-05  3519   0.876E-03    0.170E-02
RMM:   7    -0.108941890959E+04   -0.90517E-06   -0.12697E-05  3419   0.677E-03    0.981E-03
RMM:   8    -0.108941891009E+04   -0.49901E-06   -0.74281E-06  3141   0.405E-03
  16 F= -.10894189E+04 E0= -.10894189E+04  d E =-.429194E-03  mag=    50.0000
       N       E                     dE             d eps       ncg     rms          rms(c)
DAV:   1    -0.108941885930E+04    0.50284E-04   -0.26668E-02  6400   0.188E-01    0.523E-02
RMM:   2    -0.108941892482E+04   -0.65514E-04   -0.65390E-04  5324   0.336E-02    0.336E-02
RMM:   3    -0.108941892778E+04   -0.29604E-05   -0.39004E-05  3459   0.145E-02    0.188E-02
RMM:   4    -0.108941892709E+04    0.68487E-06   -0.14738E-05  3362   0.542E-03    0.125E-02
RMM:   5    -0.108941892659E+04    0.50265E-06   -0.58413E-06  3221   0.437E-03    0.134E-02
RMM:   6    -0.108941892657E+04    0.15760E-07   -0.29034E-06  2291   0.281E-03    0.249E-03
RMM:   7    -0.108941892663E+04   -0.57014E-07   -0.15079E-06  1843   0.261E-03    0.151E-03
RMM:   8    -0.108941892664E+04   -0.54424E-08   -0.67249E-07  1416   0.214E-03
  17 F= -.10894189E+04 E0= -.10894189E+04  d E =-.445744E-03  mag=    50.0000
       N       E                     dE             d eps       ncg     rms          rms(c)
DAV:   1    -0.108941847334E+04    0.45329E-03   -0.32647E-01  6248   0.658E-01    0.177E-01
RMM:   2    -0.108941930923E+04   -0.83589E-03   -0.80741E-03  6275   0.118E-01    0.114E-01
RMM:   3    -0.108941933163E+04   -0.22393E-04   -0.43030E-04  4833   0.455E-02    0.645E-02
RMM:   4    -0.108941931086E+04    0.20761E-04   -0.10534E-04  3575   0.149E-02    0.386E-02
RMM:   5    -0.108941930908E+04    0.17834E-05   -0.38608E-05  3518   0.106E-02    0.284E-02
RMM:   6    -0.108941931146E+04   -0.23792E-05   -0.16545E-05  3460   0.723E-03    0.809E-03
RMM:   7    -0.108941931303E+04   -0.15737E-05   -0.88162E-06  3309   0.486E-03    0.589E-03
RMM:   8    -0.108941931415E+04   -0.11166E-05   -0.54186E-06  2977   0.397E-03
  18 F= -.10894193E+04 E0= -.10894193E+04  d E =-.387514E-03  mag=    50.0000
       N       E                     dE             d eps       ncg     rms          rms(c)
DAV:   1    -0.108941922643E+04    0.86607E-04   -0.45513E-02  6080   0.246E-01    0.663E-02
RMM:   2    -0.108941934502E+04   -0.11860E-03   -0.11368E-03  5958   0.443E-02    0.429E-02
RMM:   3    -0.108941934832E+04   -0.32980E-05   -0.57622E-05  3475   0.181E-02    0.244E-02
RMM:   4    -0.108941934704E+04    0.12845E-05   -0.21077E-05  3409   0.662E-03    0.183E-02
RMM:   5    -0.108941934730E+04   -0.26627E-06   -0.76808E-06  3219   0.518E-03    0.148E-02
RMM:   6    -0.108941934800E+04   -0.69528E-06   -0.45900E-06  2632   0.310E-03    0.462E-03
RMM:   7    -0.108941934834E+04   -0.34311E-06   -0.21767E-06  2266   0.306E-03    0.320E-03
RMM:   8    -0.108941934852E+04   -0.18172E-06   -0.11648E-06  1654   0.222E-03
  19 F= -.10894193E+04 E0= -.10894193E+04  d E =-.421888E-03  mag=    50.0000
       N       E                     dE             d eps       ncg     rms          rms(c)
DAV:   1    -0.108941876901E+04    0.57933E-03   -0.36706E-01  6224   0.698E-01    0.176E-01
RMM:   2    -0.108941968176E+04   -0.91275E-03   -0.90273E-03  6228   0.125E-01    0.111E-01
RMM:   3    -0.108941970939E+04   -0.27633E-04   -0.49712E-04  4942   0.482E-02    0.660E-02
RMM:   4    -0.108941968897E+04    0.20425E-04   -0.11222E-04  3610   0.154E-02    0.490E-02
RMM:   5    -0.108941968429E+04    0.46755E-05   -0.37824E-05  3515   0.106E-02    0.351E-02
RMM:   6    -0.108941968519E+04   -0.89484E-06   -0.23909E-05  3423   0.764E-03    0.803E-03
RMM:   7    -0.108941968634E+04   -0.11551E-05   -0.98188E-06  3353   0.576E-03    0.595E-03
RMM:   8    -0.108941968701E+04   -0.66665E-06   -0.61945E-06  2921   0.379E-03
  20 F= -.10894197E+04 E0= -.10894197E+04  d E =-.338487E-03  mag=    50.0000
       N       E                     dE             d eps       ncg     rms          rms(c)
DAV:   1    -0.108941968070E+04    0.56482E-05   -0.33886E-03  6456   0.673E-02    0.174E-02
RMM:   2    -0.108941968900E+04   -0.83083E-05   -0.82199E-05  3351   0.133E-02    0.134E-02
RMM:   3    -0.108941969069E+04   -0.16879E-05   -0.11601E-05  3069   0.702E-03    0.929E-03
RMM:   4    -0.108941969097E+04   -0.28286E-06   -0.43541E-06  2497   0.335E-03    0.581E-03
RMM:   5    -0.108941969100E+04   -0.28507E-07   -0.19540E-06  2238   0.299E-03    0.376E-03
RMM:   6    -0.108941969102E+04   -0.16851E-07   -0.88947E-07  1251   0.200E-03    0.103E-03
RMM:   7    -0.108941969107E+04   -0.48196E-07   -0.48617E-07  1138   0.202E-03    0.432E-04
RMM:   8    -0.108941969107E+04   -0.24593E-08   -0.99618E-08   733   0.179E-03
  21 F= -.10894197E+04 E0= -.10894197E+04  d E =-.342548E-03  mag=    50.0000
       N       E                     dE             d eps       ncg     rms          rms(c)
DAV:   1    -0.108941921950E+04    0.47157E-03   -0.29299E-01  6256   0.625E-01    0.163E-01
RMM:   2    -0.108941991745E+04   -0.69795E-03   -0.72697E-03  6186   0.113E-01    0.106E-01
RMM:   3    -0.108941993524E+04   -0.17786E-04   -0.40348E-04  4670   0.447E-02    0.645E-02
RMM:   4    -0.108941991795E+04    0.17288E-04   -0.10063E-04  3578   0.150E-02    0.531E-02
RMM:   5    -0.108941991359E+04    0.43606E-05   -0.34945E-05  3508   0.106E-02    0.360E-02
RMM:   6    -0.108941991285E+04    0.74400E-06   -0.24638E-05  3456   0.715E-03    0.114E-02
RMM:   7    -0.108941991345E+04   -0.60011E-06   -0.90482E-06  3339   0.583E-03    0.720E-03
RMM:   8    -0.108941991377E+04   -0.32627E-06   -0.56166E-06  2692   0.334E-03
  22 F= -.10894199E+04 E0= -.10894199E+04  d E =-.222703E-03  mag=    50.0000
       N       E                     dE             d eps       ncg     rms          rms(c)
DAV:   1    -0.108941991342E+04    0.26834E-07   -0.45371E-05  4184   0.907E-03    0.472E-03
RMM:   2    -0.108941991394E+04   -0.51515E-06   -0.65055E-06  2861   0.492E-03    0.479E-03
RMM:   3    -0.108941991421E+04   -0.27173E-06   -0.24151E-06  1957   0.260E-03    0.205E-03
RMM:   4    -0.108941991428E+04   -0.74288E-07   -0.11365E-06  1666   0.259E-03    0.205E-03
RMM:   5    -0.108941991427E+04    0.13606E-07   -0.23304E-07  1034   0.192E-03    0.106E-03
RMM:   6    -0.108941991421E+04    0.55676E-07   -0.11748E-07   825   0.193E-03    0.717E-04
RMM:   7    -0.108941991421E+04    0.72760E-08   -0.20903E-08   639   0.187E-03    0.417E-04
RMM:   8    -0.108941991421E+04   -0.27649E-09   -0.95543E-09   566   0.186E-03
  23 F= -.10894199E+04 E0= -.10894199E+04  d E =-.223135E-03  mag=    50.0000
       N       E                     dE             d eps       ncg     rms          rms(c)
DAV:   1    -0.108941940904E+04    0.50516E-03   -0.28779E-01  6272   0.620E-01    0.159E-01
RMM:   2    -0.108942014746E+04   -0.73842E-03   -0.70841E-03  6244   0.111E-01    0.104E-01
RMM:   3    -0.108942017315E+04   -0.25691E-04   -0.38478E-04  4556   0.441E-02    0.609E-02
RMM:   4    -0.108942015920E+04    0.13949E-04   -0.92967E-05  3551   0.146E-02    0.480E-02
RMM:   5    -0.108942015730E+04    0.19045E-05   -0.32642E-05  3444   0.102E-02    0.362E-02
RMM:   6    -0.108942015806E+04   -0.76296E-06   -0.21065E-05  3344   0.670E-03    0.107E-02
RMM:   7    -0.108942015886E+04   -0.79794E-06   -0.79914E-06  3216   0.535E-03    0.564E-03
RMM:   8    -0.108942015929E+04   -0.43274E-06   -0.48132E-06  2473   0.325E-03
  24 F= -.10894202E+04 E0= -.10894202E+04  d E =-.245087E-03  mag=    50.0000
       N       E                     dE             d eps       ncg     rms          rms(c)
DAV:   1    -0.108942013808E+04    0.20778E-04   -0.84395E-03  6184   0.106E-01    0.276E-02
RMM:   2    -0.108942015867E+04   -0.20590E-04   -0.19556E-04  3772   0.202E-02    0.216E-02
RMM:   3    -0.108942016176E+04   -0.30898E-05   -0.23048E-05  3165   0.104E-02    0.140E-02
RMM:   4    -0.108942016222E+04   -0.46167E-06   -0.77811E-06  2873   0.439E-03    0.960E-03
RMM:   5    -0.108942016213E+04    0.91633E-07   -0.31927E-06  2438   0.359E-03    0.495E-03
RMM:   6    -0.108942016225E+04   -0.11626E-06   -0.16925E-06  1533   0.228E-03    0.158E-03
RMM:   7    -0.108942016232E+04   -0.68656E-07   -0.89518E-07  1398   0.236E-03    0.949E-04
RMM:   8    -0.108942016234E+04   -0.22890E-07   -0.18281E-07   752   0.190E-03
  25 F= -.10894202E+04 E0= -.10894202E+04  d E =-.248135E-03  mag=    50.0000
       N       E                     dE             d eps       ncg     rms          rms(c)
DAV:   1    -0.108941968380E+04    0.47852E-03   -0.27211E-01  6304   0.602E-01    0.146E-01
RMM:   2    -0.108942029540E+04   -0.61160E-03   -0.68620E-03  6232   0.110E-01    0.968E-02
RMM:   3    -0.108942029912E+04   -0.37183E-05   -0.38788E-04  4568   0.439E-02    0.630E-02
RMM:   4    -0.108942028401E+04    0.15106E-04   -0.98812E-05  3584   0.149E-02    0.553E-02
RMM:   5    -0.108942028093E+04    0.30827E-05   -0.33685E-05  3510   0.102E-02    0.371E-02
RMM:   6    -0.108942028086E+04    0.70693E-07   -0.26329E-05  3475   0.712E-03    0.152E-02
RMM:   7    -0.108942028213E+04   -0.12711E-05   -0.94649E-06  3412   0.582E-03    0.808E-03
RMM:   8    -0.108942028299E+04   -0.85811E-06   -0.53118E-06  2736   0.342E-03
  26 F= -.10894203E+04 E0= -.10894203E+04  d E =-.120647E-03  mag=    50.0000
       N       E                     dE             d eps       ncg     rms          rms(c)
DAV:   1    -0.108942027260E+04    0.95294E-05   -0.13942E-02  6192   0.136E-01    0.321E-02
RMM:   2    -0.108942029939E+04   -0.26793E-04   -0.30961E-04  3911   0.255E-02    0.232E-02
RMM:   3    -0.108942030242E+04   -0.30258E-05   -0.31015E-05  3236   0.129E-02    0.151E-02
RMM:   4    -0.108942030223E+04    0.18801E-06   -0.91127E-06  3138   0.511E-03    0.125E-02
RMM:   5    -0.108942030179E+04    0.43660E-06   -0.24557E-06  2423   0.331E-03    0.577E-03
RMM:   6    -0.108942030161E+04    0.18268E-06   -0.63919E-07  1108   0.212E-03    0.212E-03
RMM:   7    -0.108942030162E+04   -0.71595E-08   -0.38167E-07   993   0.204E-03    0.154E-03
RMM:   8    -0.108942030160E+04    0.16895E-07   -0.41801E-08   603   0.188E-03
  27 F= -.10894203E+04 E0= -.10894203E+04  d E =-.139261E-03  mag=    50.0000
