<?xml version="1.0" encoding="ISO-8859-1"?>
<modeling>
 <generator>
  <i name="program" type="string">vasp </i>
  <i name="version" type="string">5.4.1  </i>
  <i name="subversion" type="string">05Feb16 (build Jan 25 2017 20:16:33) complex                          parallel </i>
  <i name="platform" type="string">BWXE6 </i>
  <i name="date" type="string">2019 08 12 </i>
  <i name="time" type="string">10:31:52 </i>
 </generator>
 <incar>
  <i type="string" name="SYSTEM"> STF</i>
  <i type="string" name="PREC">normal</i>
  <i type="string" name="ALGO"> Fast</i>
  <i type="int" name="ISPIN">     2</i>
  <i type="int" name="NELM">    40</i>
  <i type="int" name="NELMIN">     8</i>
  <i type="int" name="IBRION">     2</i>
  <i name="EDIFF">      0.00010000</i>
  <i name="EDIFFG">     -0.03000000</i>
  <i type="int" name="NSW">    30</i>
  <i type="int" name="ISIF">     3</i>
  <i name="ENCUT">    520.00000000</i>
  <i type="int" name="NBANDS">   768</i>
  <v name="MAGMOM">      0.60000000      0.60000000      0.60000000      0.60000000      0.60000000      0.60000000      0.60000000      0.60000000      0.60000000      0.60000000      0.60000000      0.60000000      0.60000000      0.60000000      0.60000000      0.60000000      0.60000000      0.60000000      0.60000000      0.60000000
      0.60000000      0.60000000      0.60000000      0.60000000      0.60000000      0.60000000      0.60000000      0.60000000      0.60000000      0.60000000      0.60000000      0.60000000      0.60000000      0.60000000      0.60000000      0.60000000      0.60000000      0.60000000      0.60000000      0.60000000
      0.60000000      0.60000000      0.60000000      0.60000000      0.60000000      0.60000000      0.60000000      0.60000000      0.60000000      0.60000000      0.60000000      0.60000000      5.00000000      5.00000000      5.00000000      5.00000000      5.00000000      5.00000000      5.00000000      5.00000000
      5.00000000      5.00000000      5.00000000      5.00000000      0.60000000      0.60000000      0.60000000      0.60000000      0.60000000      0.60000000      0.60000000      0.60000000      0.60000000      0.60000000      0.60000000      0.60000000      0.60000000      0.60000000      0.60000000      0.60000000
      0.60000000      0.60000000      0.60000000      0.60000000      0.60000000      0.60000000      0.60000000      0.60000000      0.60000000      0.60000000      0.60000000      0.60000000      0.60000000      0.60000000      0.60000000      0.60000000      0.60000000      0.60000000      0.60000000      0.60000000
      0.60000000      0.60000000      0.60000000      0.60000000      0.60000000      0.60000000      0.60000000      0.60000000      0.60000000      0.60000000      0.60000000      0.60000000      0.60000000      0.60000000      0.60000000      0.60000000      0.60000000      0.60000000      0.60000000      0.60000000
      0.60000000      0.60000000      0.60000000      0.60000000      0.60000000      0.60000000      0.60000000      0.60000000      0.60000000      0.60000000      0.60000000      0.60000000      0.60000000      0.60000000      0.60000000      0.60000000      0.60000000      0.60000000      0.60000000      0.60000000
      0.60000000      0.60000000      0.60000000      0.60000000      0.60000000      0.60000000      0.60000000      0.60000000      0.60000000      0.60000000      0.60000000      0.60000000      0.60000000      0.60000000</v>
  <i type="string" name="LREAL"> Auto</i>
  <i type="int" name="ISMEAR">     0</i>
  <i name="SIGMA">      0.05000000</i>
  <i type="int" name="LMAXMIX">     4</i>
  <v type="int" name="KPOINT_BSE">    -1     0     0     0</v>
  <i type="int" name="NELM">    40</i>
  <i type="logical" name="LDAU"> T  </i>
  <v type="int" name="LDAUTYPE">     2</v>
  <v type="int" name="LDAUL">     0     2     2     0</v>
  <v name="LDAUU">      0.00000000      3.00000000      5.00000000      0.00000000</v>
  <v name="LDAUJ">      0.00000000      0.00000000      0.00000000      0.00000000</v>
  <i type="int" name="LDAUPRINT">     1</i>
 </incar>
 <kpoints>
  <generation param="Monkhorst-Pack">
   <v type="int" name="divisions">       2        2        2 </v>
   <v name="usershift">      0.00000000       0.00000000       0.00000000 </v>
   <v name="genvec1">      0.50000000      -0.00000000       0.00000000 </v>
   <v name="genvec2">      0.00000000       0.50000000       0.00000000 </v>
   <v name="genvec3">      0.00000000       0.00000000       0.50000000 </v>
   <v name="shift">      0.50000000       0.50000000       0.50000000 </v>
  </generation>
  <varray name="kpointlist" >
   <v>       0.25000000       0.25000000       0.25000000 </v>
   <v>      -0.25000000       0.25000000       0.25000000 </v>
  </varray>
  <varray name="weights" >
   <v>       0.50000000 </v>
   <v>       0.50000000 </v>
  </varray>
 </kpoints>
 <parameters>
  <separator name="general" >
   <i type="string" name="SYSTEM">STF</i>
   <i type="logical" name="LCOMPAT"> F  </i>
  </separator>
  <separator name="electronic" >
   <i type="string" name="PREC">normal</i>
   <i name="ENMAX">    520.00000000</i>
   <i name="ENAUG">    605.39200000</i>
   <i name="EDIFF">      0.00010000</i>
   <i type="int" name="IALGO">    68</i>
   <i type="int" name="IWAVPR">    11</i>
   <i type="int" name="NBANDS">   768</i>
   <i name="NELECT">   1036.00000000</i>
   <i type="int" name="TURBO">     0</i>
   <i type="int" name="IRESTART">     0</i>
   <i type="int" name="NREBOOT">     0</i>
   <i type="int" name="NMIN">     0</i>
   <i name="EREF">      0.00000000</i>
   <separator name="electronic smearing" >
    <i type="int" name="ISMEAR">     0</i>
    <i name="SIGMA">      0.05000000</i>
    <i name="KSPACING">      0.50000000</i>
    <i type="logical" name="KGAMMA"> T  </i>
   </separator>
   <separator name="electronic projectors" >
    <i type="logical" name="LREAL"> T  </i>
    <v name="ROPT">     -0.00050000     -0.00050000     -0.00050000     -0.00050000</v>
    <i type="int" name="LMAXPAW">  -100</i>
    <i type="int" name="LMAXMIX">     4</i>
    <i type="logical" name="NLSPLINE"> F  </i>
   </separator>
   <separator name="electronic startup" >
    <i type="int" name="ISTART">     1</i>
    <i type="int" name="ICHARG">     0</i>
    <i type="int" name="INIWAV">     1</i>
   </separator>
   <separator name="electronic spin" >
    <i type="int" name="ISPIN">     2</i>
    <i type="logical" name="LNONCOLLINEAR"> F  </i>
    <v name="MAGMOM">      0.60000000      0.60000000      0.60000000      0.60000000      0.60000000      0.60000000      0.60000000      0.60000000      0.60000000      0.60000000      0.60000000      0.60000000      0.60000000      0.60000000      0.60000000      0.60000000      0.60000000      0.60000000      0.60000000      0.60000000
      0.60000000      0.60000000      0.60000000      0.60000000      0.60000000      0.60000000      0.60000000      0.60000000      0.60000000      0.60000000      0.60000000      0.60000000      0.60000000      0.60000000      0.60000000      0.60000000      0.60000000      0.60000000      0.60000000      0.60000000
      0.60000000      0.60000000      0.60000000      0.60000000      0.60000000      0.60000000      0.60000000      0.60000000      0.60000000      0.60000000      0.60000000      0.60000000      5.00000000      5.00000000      5.00000000      5.00000000      5.00000000      5.00000000      5.00000000      5.00000000
      5.00000000      5.00000000      5.00000000      5.00000000      0.60000000      0.60000000      0.60000000      0.60000000      0.60000000      0.60000000      0.60000000      0.60000000      0.60000000      0.60000000      0.60000000      0.60000000      0.60000000      0.60000000      0.60000000      0.60000000
      0.60000000      0.60000000      0.60000000      0.60000000      0.60000000      0.60000000      0.60000000      0.60000000      0.60000000      0.60000000      0.60000000      0.60000000      0.60000000      0.60000000      0.60000000      0.60000000      0.60000000      0.60000000      0.60000000      0.60000000
      0.60000000      0.60000000      0.60000000      0.60000000      0.60000000      0.60000000      0.60000000      0.60000000      0.60000000      0.60000000      0.60000000      0.60000000      0.60000000      0.60000000      0.60000000      0.60000000      0.60000000      0.60000000      0.60000000      0.60000000
      0.60000000      0.60000000      0.60000000      0.60000000      0.60000000      0.60000000      0.60000000      0.60000000      0.60000000      0.60000000      0.60000000      0.60000000      0.60000000      0.60000000      0.60000000      0.60000000      0.60000000      0.60000000      0.60000000      0.60000000
      0.60000000      0.60000000      0.60000000      0.60000000      0.60000000      0.60000000      0.60000000      0.60000000      0.60000000      0.60000000      0.60000000      0.60000000      0.60000000      0.60000000</v>
    <i name="NUPDOWN">     -1.00000000</i>
    <i type="logical" name="LSORBIT"> F  </i>
    <v name="SAXIS">      0.00000000      0.00000000      1.00000000</v>
    <i type="logical" name="LSPIRAL"> F  </i>
    <v name="QSPIRAL">      0.00000000      0.00000000      0.00000000</v>
    <i type="logical" name="LZEROZ"> F  </i>
   </separator>
   <separator name="electronic exchange-correlation" >
    <i type="logical" name="LASPH"> F  </i>
    <i type="logical" name="LMETAGGA"> F  </i>
   </separator>
   <separator name="electronic convergence" >
    <i type="int" name="NELM">    40</i>
    <i type="int" name="NELMDL">     0</i>
    <i type="int" name="NELMIN">     8</i>
    <i name="ENINI">    520.00000000</i>
    <separator name="electronic convergence detail" >
     <i type="logical" name="LDIAG"> T  </i>
     <i type="logical" name="LSUBROT"> F  </i>
     <i name="WEIMIN">      0.00100000</i>
     <i name="EBREAK">      0.00000003</i>
     <i name="DEPER">      0.30000000</i>
     <i type="int" name="NRMM">     4</i>
     <i name="TIME">      0.40000000</i>
    </separator>
   </separator>
   <separator name="electronic mixer" >
    <i name="AMIX">      0.40000000</i>
    <i name="BMIX">      1.00000000</i>
    <i name="AMIN">      0.10000000</i>
    <i name="AMIX_MAG">      1.60000000</i>
    <i name="BMIX_MAG">      1.00000000</i>
    <separator name="electronic mixer details" >
     <i type="int" name="IMIX">     4</i>
     <i type="logical" name="MIXFIRST"> F  </i>
     <i type="int" name="MAXMIX">   -45</i>
     <i name="WC">    100.00000000</i>
     <i type="int" name="INIMIX">     1</i>
     <i type="int" name="MIXPRE">     1</i>
     <i type="int" name="MREMOVE">     5</i>
    </separator>
   </separator>
   <separator name="electronic dipolcorrection" >
    <i type="logical" name="LDIPOL"> F  </i>
    <i type="logical" name="LMONO"> F  </i>
    <i type="int" name="IDIPOL">     0</i>
    <i name="EPSILON">      1.00000000</i>
    <v name="DIPOL">   -100.00000000   -100.00000000   -100.00000000</v>
    <i name="EFIELD">      0.00000000</i>
   </separator>
  </separator>
  <separator name="grids" >
   <i type="int" name="NGX">    64</i>
   <i type="int" name="NGY">    64</i>
   <i type="int" name="NGZ">    90</i>
   <i type="int" name="NGXF">   128</i>
   <i type="int" name="NGYF">   128</i>
   <i type="int" name="NGZF">   180</i>
   <i type="logical" name="ADDGRID"> F  </i>
  </separator>
  <separator name="ionic" >
   <i type="int" name="NSW">    30</i>
   <i type="int" name="IBRION">     2</i>
   <i type="int" name="ISIF">     3</i>
   <i name="PSTRESS">      0.00000000</i>
   <i name="EDIFFG">     -0.03000000</i>
   <i type="int" name="NFREE">     1</i>
   <i name="POTIM">      0.50000000</i>
   <i name="SMASS">     -3.00000000</i>
   <i name="SCALEE">      1.00000000</i>
  </separator>
  <separator name="ionic md" >
   <i name="TEBEG">      0.00010000</i>
   <i name="TEEND">      0.00010000</i>
   <i type="int" name="NBLOCK">     1</i>
   <i type="int" name="KBLOCK">    30</i>
   <i type="int" name="NPACO">   256</i>
   <i name="APACO">     16.00000000</i>
  </separator>
  <separator name="symmetry" >
   <i type="int" name="ISYM">     2</i>
   <i name="SYMPREC">      0.00001000</i>
  </separator>
  <separator name="dos" >
   <i type="logical" name="LORBIT"> F  </i>
   <v name="RWIGS">     -1.00000000     -1.00000000     -1.00000000     -1.00000000</v>
   <i type="int" name="NEDOS">   301</i>
   <i name="EMIN">     10.00000000</i>
   <i name="EMAX">    -10.00000000</i>
   <i name="EFERMI">      0.00000000</i>
  </separator>
  <separator name="writing" >
   <i type="int" name="NWRITE">     2</i>
   <i type="logical" name="LWAVE"> T  </i>
   <i type="logical" name="LCHARG"> T  </i>
   <i type="logical" name="LPARD"> F  </i>
   <i type="logical" name="LVTOT"> F  </i>
   <i type="logical" name="LVHAR"> F  </i>
   <i type="logical" name="LELF"> F  </i>
   <i type="logical" name="LOPTICS"> F  </i>
   <v name="STM">      0.00000000      0.00000000      0.00000000      0.00000000      0.00000000      0.00000000      0.00000000</v>
  </separator>
  <separator name="performance" >
   <i type="int" name="NPAR">     2</i>
   <i type="int" name="NSIM">     4</i>
   <i type="int" name="NBLK">    -1</i>
   <i type="logical" name="LPLANE"> T  </i>
   <i type="logical" name="LSCALAPACK"> T  </i>
   <i type="logical" name="LSCAAWARE"> F  </i>
   <i type="logical" name="LSCALU"> F  </i>
   <i type="logical" name="LASYNC"> F  </i>
   <i type="logical" name="LORBITALREAL"> F  </i>
  </separator>
  <separator name="miscellaneous" >
   <i type="int" name="IDIOT">     3</i>
   <i type="logical" name="LMUSIC"> F  </i>
   <v name="POMASS">     87.62000000     47.88000000     55.84700000     16.00000000</v>
   <v name="DARWINR">      0.00000000      0.00000000      0.00000000      0.00000000</v>
   <v name="DARWINV">      1.00000000      1.00000000      1.00000000      1.00000000</v>
   <i type="logical" name="LCORR"> T  </i>
  </separator>
  <i type="logical" name="GGA_COMPAT"> T  </i>
  <i type="logical" name="LBERRY"> F  </i>
  <i type="int" name="ICORELEVEL">     0</i>
  <i type="logical" name="LDAU"> T  </i>
  <v type="int" name="LDAUTYPE">     2</v>
  <v type="int" name="LDAUL">     0</v>
  <v name="LDAUU">      0.00000000</v>
  <v name="LDAUJ">      0.00000000</v>
  <i type="int" name="LDAUPRINT">     1</i>
  <i type="int" name="I_CONSTRAINED_M">     0</i>
  <separator name="electronic exchange-correlation" >
   <i type="string" name="GGA">--</i>
   <i type="int" name="VOSKOWN">     0</i>
   <i type="logical" name="LHFCALC"> F  </i>
   <i type="string" name="PRECFOCK"></i>
   <i type="logical" name="LSYMGRAD"> F  </i>
   <i type="logical" name="LHFONE"> F  </i>
   <i type="logical" name="LRHFCALC"> F  </i>
   <i type="logical" name="LTHOMAS"> F  </i>
   <i type="logical" name="LMODELHF"> F  </i>
   <i name="ENCUT4O">     -1.00000000</i>
   <i type="int" name="EXXOEP">     0</i>
   <i type="int" name="FOURORBIT">     0</i>
   <i name="AEXX">      0.00000000</i>
   <i name="HFALPHA">      0.00000000</i>
   <i name="MCALPHA">      0.00000000</i>
   <i name="ALDAX">      1.00000000</i>
   <i name="AGGAX">      1.00000000</i>
   <i name="ALDAC">      1.00000000</i>
   <i name="AGGAC">      1.00000000</i>
   <i type="int" name="NKREDX">     1</i>
   <i type="int" name="NKREDY">     1</i>
   <i type="int" name="NKREDZ">     1</i>
   <i type="logical" name="SHIFTRED"> F  </i>
   <i type="logical" name="ODDONLY"> F  </i>
   <i type="logical" name="EVENONLY"> F  </i>
   <i type="int" name="LMAXFOCK">     0</i>
   <i type="int" name="NMAXFOCKAE">     0</i>
   <i type="logical" name="LFOCKAEDFT"> F  </i>
   <i name="HFSCREEN">      0.00000000</i>
   <i name="HFSCREENC">      0.00000000</i>
   <i type="int" name="NBANDSGWLOW">     0</i>
  </separator>
  <separator name="vdW DFT" >
   <i type="logical" name="LUSE_VDW"> F  </i>
   <i name="Zab_VDW">     -0.84910000</i>
   <i name="PARAM1">      0.12340000</i>
   <i name="PARAM2">      1.00000000</i>
   <i name="PARAM3">      0.00000000</i>
  </separator>
  <separator name="model GW" >
   <i type="int" name="MODEL_GW">     0</i>
   <i name="MODEL_EPS0">      7.81040075</i>
   <i name="MODEL_ALPHA">      1.00000000</i>
  </separator>
  <separator name="linear response parameters" >
   <i type="logical" name="LEPSILON"> F  </i>
   <i type="logical" name="LRPA"> F  </i>
   <i type="logical" name="LNABLA"> F  </i>
   <i type="logical" name="LVEL"> F  </i>
   <i type="int" name="KINTER">     0</i>
   <i name="CSHIFT">      0.10000000</i>
   <i name="OMEGAMAX">     -1.00000000</i>
   <i name="DEG_THRESHOLD">      0.00200000</i>
  </separator>
  <separator name="orbital magnetization" >
   <i type="logical" name="NUCIND"> F  </i>
   <v name="MAGPOS">      0.00000000      0.00000000      0.00000000</v>
   <i type="logical" name="LNICSALL"> T  </i>
   <i type="logical" name="ORBITALMAG"> F  </i>
   <i type="logical" name="LMAGBLOCH"> F  </i>
   <i type="logical" name="LCHIMAG"> F  </i>
   <i type="logical" name="LGAUGE"> T  </i>
   <i type="int" name="MAGATOM">     0</i>
   <v name="MAGDIPOL">      0.00000000      0.00000000      0.00000000</v>
   <v name="AVECCONST">      0.00000000      0.00000000      0.00000000</v>
  </separator>
  <separator name="response functions" >
   <i type="logical" name="LADDER"> F  </i>
   <i type="logical" name="LFXC"> F  </i>
   <i type="logical" name="LHARTREE"> T  </i>
   <i type="int" name="IBSE">     0</i>
   <v type="int" name="KPOINT">    -1     0     0     0</v>
   <i type="logical" name="LTCTE"> F  </i>
   <i type="logical" name="LTETE"> F  </i>
   <i type="logical" name="LTRIPLET"> F  </i>
   <i type="logical" name="LFXCEPS"> F  </i>
   <i type="logical" name="LFXHEG"> F  </i>
   <i type="int" name="NATURALO">     0</i>
   <i type="logical" name="L2ORDER"> F  </i>
   <i type="logical" name="LUSEW"> F  </i>
   <i name="ENCUTGW">     -2.00000000</i>
   <i name="ENCUTGWSOFT">     -2.00000000</i>
   <i name="ENCUTLF">     -1.00000000</i>
   <i type="int" name="LMAXMP2">    -1</i>
   <i name="SCISSOR">      0.00000000</i>
   <i type="int" name="NOMEGA">     0</i>
   <i type="int" name="NOMEGAR">     0</i>
   <i type="int" name="NBANDSGW">    -1</i>
   <i type="int" name="NBANDSO">    -1</i>
   <i type="int" name="NBANDSV">    -1</i>
   <i type="int" name="NELM">    40</i>
   <i type="int" name="NELMHF">     1</i>
   <i type="int" name="DIM">     3</i>
   <i type="int" name="ANTIRES">     0</i>
   <i name="OMEGAMAX">    -30.00000000</i>
   <i name="OMEGAMIN">    -30.00000000</i>
   <i name="OMEGATL">   -200.00000000</i>
   <i type="int" name="OMEGAGRID">     0</i>
   <i name="CSHIFT">     -0.10000000</i>
   <i type="logical" name="SELFENERGY"> F  </i>
   <i type="logical" name="LSPECTRAL"> F  </i>
   <i type="logical" name="LSPECTRALGW"> F  </i>
   <i type="logical" name="LSINGLES"> F  </i>
   <i type="logical" name="LFERMIGW"> F  </i>
   <i type="logical" name="ODDONLYGW"> F  </i>
   <i type="logical" name="EVENONLYGW"> F  </i>
   <i type="int" name="NKREDLFX">     1</i>
   <i type="int" name="NKREDLFY">     1</i>
   <i type="int" name="NKREDLFZ">     1</i>
   <i type="int" name="MAXMEM">  1800</i>
   <i type="int" name="TELESCOPE">     0</i>
   <i type="int" name="TAUPAR">     1</i>
   <i type="int" name="OMEGAPAR">    -1</i>
   <i name="LAMBDA">      1.00000000</i>
  </separator>
  <separator name="External order field" >
   <i name="OFIELD_KAPPA">      0.00000000</i>
   <v name="OFIELD_K">      0.00000000      0.00000000      0.00000000</v>
   <i name="OFIELD_Q6_NEAR">      0.00000000</i>
   <i name="OFIELD_Q6_FAR">      0.00000000</i>
   <i name="OFIELD_A">      0.00000000</i>
  </separator>
 </parameters>
 <atominfo>
  <atoms>     154 </atoms>
  <types>       4 </types>
  <array name="atoms" >
   <dimension dim="1">ion</dimension>
   <field type="string">element</field>
   <field type="int">atomtype</field>
   <set>
    <rc><c>Sr</c><c>   1</c></rc>
    <rc><c>Sr</c><c>   1</c></rc>
    <rc><c>Sr</c><c>   1</c></rc>
    <rc><c>Sr</c><c>   1</c></rc>
    <rc><c>Sr</c><c>   1</c></rc>
    <rc><c>Sr</c><c>   1</c></rc>
    <rc><c>Sr</c><c>   1</c></rc>
    <rc><c>Sr</c><c>   1</c></rc>
    <rc><c>Sr</c><c>   1</c></rc>
    <rc><c>Sr</c><c>   1</c></rc>
    <rc><c>Sr</c><c>   1</c></rc>
    <rc><c>Sr</c><c>   1</c></rc>
    <rc><c>Sr</c><c>   1</c></rc>
    <rc><c>Sr</c><c>   1</c></rc>
    <rc><c>Sr</c><c>   1</c></rc>
    <rc><c>Sr</c><c>   1</c></rc>
    <rc><c>Sr</c><c>   1</c></rc>
    <rc><c>Sr</c><c>   1</c></rc>
    <rc><c>Sr</c><c>   1</c></rc>
    <rc><c>Sr</c><c>   1</c></rc>
    <rc><c>Sr</c><c>   1</c></rc>
    <rc><c>Sr</c><c>   1</c></rc>
    <rc><c>Sr</c><c>   1</c></rc>
    <rc><c>Sr</c><c>   1</c></rc>
    <rc><c>Sr</c><c>   1</c></rc>
    <rc><c>Sr</c><c>   1</c></rc>
    <rc><c>Sr</c><c>   1</c></rc>
    <rc><c>Sr</c><c>   1</c></rc>
    <rc><c>Sr</c><c>   1</c></rc>
    <rc><c>Sr</c><c>   1</c></rc>
    <rc><c>Sr</c><c>   1</c></rc>
    <rc><c>Sr</c><c>   1</c></rc>
    <rc><c>Ti</c><c>   2</c></rc>
    <rc><c>Ti</c><c>   2</c></rc>
    <rc><c>Ti</c><c>   2</c></rc>
    <rc><c>Ti</c><c>   2</c></rc>
    <rc><c>Ti</c><c>   2</c></rc>
    <rc><c>Ti</c><c>   2</c></rc>
    <rc><c>Ti</c><c>   2</c></rc>
    <rc><c>Ti</c><c>   2</c></rc>
    <rc><c>Ti</c><c>   2</c></rc>
    <rc><c>Ti</c><c>   2</c></rc>
    <rc><c>Ti</c><c>   2</c></rc>
    <rc><c>Ti</c><c>   2</c></rc>
    <rc><c>Ti</c><c>   2</c></rc>
    <rc><c>Ti</c><c>   2</c></rc>
    <rc><c>Ti</c><c>   2</c></rc>
    <rc><c>Ti</c><c>   2</c></rc>
    <rc><c>Ti</c><c>   2</c></rc>
    <rc><c>Ti</c><c>   2</c></rc>
    <rc><c>Ti</c><c>   2</c></rc>
    <rc><c>Ti</c><c>   2</c></rc>
    <rc><c>Fe</c><c>   3</c></rc>
    <rc><c>Fe</c><c>   3</c></rc>
    <rc><c>Fe</c><c>   3</c></rc>
    <rc><c>Fe</c><c>   3</c></rc>
    <rc><c>Fe</c><c>   3</c></rc>
    <rc><c>Fe</c><c>   3</c></rc>
    <rc><c>Fe</c><c>   3</c></rc>
    <rc><c>Fe</c><c>   3</c></rc>
    <rc><c>Fe</c><c>   3</c></rc>
    <rc><c>Fe</c><c>   3</c></rc>
    <rc><c>Fe</c><c>   3</c></rc>
    <rc><c>Fe</c><c>   3</c></rc>
    <rc><c>O </c><c>   4</c></rc>
    <rc><c>O </c><c>   4</c></rc>
    <rc><c>O </c><c>   4</c></rc>
    <rc><c>O </c><c>   4</c></rc>
    <rc><c>O </c><c>   4</c></rc>
    <rc><c>O </c><c>   4</c></rc>
    <rc><c>O </c><c>   4</c></rc>
    <rc><c>O </c><c>   4</c></rc>
    <rc><c>O </c><c>   4</c></rc>
    <rc><c>O </c><c>   4</c></rc>
    <rc><c>O </c><c>   4</c></rc>
    <rc><c>O </c><c>   4</c></rc>
    <rc><c>O </c><c>   4</c></rc>
    <rc><c>O </c><c>   4</c></rc>
    <rc><c>O </c><c>   4</c></rc>
    <rc><c>O </c><c>   4</c></rc>
    <rc><c>O </c><c>   4</c></rc>
    <rc><c>O </c><c>   4</c></rc>
    <rc><c>O </c><c>   4</c></rc>
    <rc><c>O </c><c>   4</c></rc>
    <rc><c>O </c><c>   4</c></rc>
    <rc><c>O </c><c>   4</c></rc>
    <rc><c>O </c><c>   4</c></rc>
    <rc><c>O </c><c>   4</c></rc>
    <rc><c>O </c><c>   4</c></rc>
    <rc><c>O </c><c>   4</c></rc>
    <rc><c>O </c><c>   4</c></rc>
    <rc><c>O </c><c>   4</c></rc>
    <rc><c>O </c><c>   4</c></rc>
    <rc><c>O </c><c>   4</c></rc>
    <rc><c>O </c><c>   4</c></rc>
    <rc><c>O </c><c>   4</c></rc>
    <rc><c>O </c><c>   4</c></rc>
    <rc><c>O </c><c>   4</c></rc>
    <rc><c>O </c><c>   4</c></rc>
    <rc><c>O </c><c>   4</c></rc>
    <rc><c>O </c><c>   4</c></rc>
    <rc><c>O </c><c>   4</c></rc>
    <rc><c>O </c><c>   4</c></rc>
    <rc><c>O </c><c>   4</c></rc>
    <rc><c>O </c><c>   4</c></rc>
    <rc><c>O </c><c>   4</c></rc>
    <rc><c>O </c><c>   4</c></rc>
    <rc><c>O </c><c>   4</c></rc>
    <rc><c>O </c><c>   4</c></rc>
    <rc><c>O </c><c>   4</c></rc>
    <rc><c>O </c><c>   4</c></rc>
    <rc><c>O </c><c>   4</c></rc>
    <rc><c>O </c><c>   4</c></rc>
    <rc><c>O </c><c>   4</c></rc>
    <rc><c>O </c><c>   4</c></rc>
    <rc><c>O </c><c>   4</c></rc>
    <rc><c>O </c><c>   4</c></rc>
    <rc><c>O </c><c>   4</c></rc>
    <rc><c>O </c><c>   4</c></rc>
    <rc><c>O </c><c>   4</c></rc>
    <rc><c>O </c><c>   4</c></rc>
    <rc><c>O </c><c>   4</c></rc>
    <rc><c>O </c><c>   4</c></rc>
    <rc><c>O </c><c>   4</c></rc>
    <rc><c>O </c><c>   4</c></rc>
    <rc><c>O </c><c>   4</c></rc>
    <rc><c>O </c><c>   4</c></rc>
    <rc><c>O </c><c>   4</c></rc>
    <rc><c>O </c><c>   4</c></rc>
    <rc><c>O </c><c>   4</c></rc>
    <rc><c>O </c><c>   4</c></rc>
    <rc><c>O </c><c>   4</c></rc>
    <rc><c>O </c><c>   4</c></rc>
    <rc><c>O </c><c>   4</c></rc>
    <rc><c>O </c><c>   4</c></rc>
    <rc><c>O </c><c>   4</c></rc>
    <rc><c>O </c><c>   4</c></rc>
    <rc><c>O </c><c>   4</c></rc>
    <rc><c>O </c><c>   4</c></rc>
    <rc><c>O </c><c>   4</c></rc>
    <rc><c>O </c><c>   4</c></rc>
    <rc><c>O </c><c>   4</c></rc>
    <rc><c>O </c><c>   4</c></rc>
    <rc><c>O </c><c>   4</c></rc>
    <rc><c>O </c><c>   4</c></rc>
    <rc><c>O </c><c>   4</c></rc>
    <rc><c>O </c><c>   4</c></rc>
    <rc><c>O </c><c>   4</c></rc>
    <rc><c>O </c><c>   4</c></rc>
    <rc><c>O </c><c>   4</c></rc>
    <rc><c>O </c><c>   4</c></rc>
    <rc><c>O </c><c>   4</c></rc>
    <rc><c>O </c><c>   4</c></rc>
    <rc><c>O </c><c>   4</c></rc>
   </set>
  </array>
  <array name="atomtypes" >
   <dimension dim="1">type</dimension>
   <field type="int">atomspertype</field>
   <field type="string">element</field>
   <field>mass</field>
   <field>valence</field>
   <field type="string">pseudopotential</field>
   <set>
    <rc><c>  32</c><c>Sr</c><c>     87.62000000</c><c>     10.00000000</c><c>  PAW_PBE Sr_sv 07Sep2000               </c></rc>
    <rc><c>  20</c><c>Ti</c><c>     47.88000000</c><c>      4.00000000</c><c>  PAW_PBE Ti 08Apr2002                  </c></rc>
    <rc><c>  12</c><c>Fe</c><c>     55.84700000</c><c>      8.00000000</c><c>  PAW_PBE Fe 06Sep2000                  </c></rc>
    <rc><c>  90</c><c>O </c><c>     16.00000000</c><c>      6.00000000</c><c>  PAW_PBE O 08Apr2002                   </c></rc>
   </set>
  </array>
 </atominfo>
 <structure name="initialpos" >
  <crystal>
   <varray name="basis" >
    <v>      11.25150345       0.00043358       0.00000000 </v>
    <v>       0.00049407      11.27042379       0.00000000 </v>
    <v>       0.00000000       0.00000000      15.80854811 </v>
   </varray>
   <i name="volume">   2004.66952648 </i>
   <varray name="rec_basis" >
    <v>       0.08887701      -0.00000390       0.00000000 </v>
    <v>      -0.00000342       0.08872781       0.00000000 </v>
    <v>       0.00000000       0.00000000       0.06325692 </v>
   </varray>
  </crystal>
  <varray name="positions" >
   <v>       0.99140018       0.25019521       0.11868911 </v>
   <v>       0.99587337       0.24872481       0.62508366 </v>
   <v>       0.99891350       0.74937344       0.12052745 </v>
   <v>       0.00452123       0.74709054       0.62535284 </v>
   <v>       0.50678466       0.24986367       0.12099588 </v>
   <v>       0.50827333       0.24951035       0.62342498 </v>
   <v>       0.49751607       0.75012107       0.11968117 </v>
   <v>       0.49550226       0.75043440       0.62834112 </v>
   <v>       0.99587337       0.24872481       0.37491634 </v>
   <v>       0.99140018       0.25019521       0.88131089 </v>
   <v>       0.00452123       0.74709054       0.37464716 </v>
   <v>       0.99891350       0.74937344       0.87947255 </v>
   <v>       0.50827333       0.24951035       0.37657502 </v>
   <v>       0.50678466       0.24986367       0.87900412 </v>
   <v>       0.49550226       0.75043440       0.37165888 </v>
   <v>       0.49751607       0.75012107       0.88031883 </v>
   <v>       0.24849592       0.98917746       0.11682834 </v>
   <v>       0.24943644       0.98930355       0.62180757 </v>
   <v>       0.24935341       0.51184440       0.12083180 </v>
   <v>       0.24767050       0.51397744       0.62430216 </v>
   <v>       0.75090291       0.00223119       0.12019863 </v>
   <v>       0.75646917       0.01423856       0.62585505 </v>
   <v>       0.74857063       0.49837639       0.11937846 </v>
   <v>       0.75229419       0.49038556       0.63116674 </v>
   <v>       0.24943644       0.98930355       0.37819243 </v>
   <v>       0.24849592       0.98917746       0.88317166 </v>
   <v>       0.24767050       0.51397744       0.37569784 </v>
   <v>       0.24935341       0.51184440       0.87916820 </v>
   <v>       0.75646917       0.01423856       0.37414495 </v>
   <v>       0.75090291       0.00223119       0.87980137 </v>
   <v>       0.75229419       0.49038556       0.36883326 </v>
   <v>       0.74857063       0.49837639       0.88062154 </v>
   <v>       0.99855514       0.99905845       0.00000000 </v>
   <v>       0.99885172       0.50071537       0.00000000 </v>
   <v>       0.24965887       0.75587370       0.24766961 </v>
   <v>       0.50109794       0.99971877       0.00000000 </v>
   <v>       0.24943771       0.23973126       0.50000000 </v>
   <v>       0.99724670       0.50286776       0.74928041 </v>
   <v>       0.49760165       0.00423728       0.50000000 </v>
   <v>       0.75064767       0.25662542       0.50000000 </v>
   <v>       0.00350507       0.00335374       0.50000000 </v>
   <v>       0.24919115       0.24424240       0.00000000 </v>
   <v>       0.24965887       0.75587370       0.75233039 </v>
   <v>       0.75041076       0.24922277       0.24683787 </v>
   <v>       0.75027184       0.74490351       0.24906976 </v>
   <v>       0.75027184       0.74490351       0.75093024 </v>
   <v>       0.75041076       0.24922277       0.75316213 </v>
   <v>       0.49981018       0.50055865       0.00000000 </v>
   <v>       0.99724670       0.50286776       0.25071959 </v>
   <v>       0.25035937       0.74935370       0.50000000 </v>
   <v>       0.50217300       0.50296432       0.25143851 </v>
   <v>       0.50217300       0.50296432       0.74856149 </v>
   <v>       0.48326260       0.48816528       0.50000000 </v>
   <v>       0.51683444       0.98854077       0.25165991 </v>
   <v>       0.01030170       0.48451584       0.50000000 </v>
   <v>       0.98981613       0.98464456       0.25030364 </v>
   <v>       0.25455113       0.27838513       0.74828969 </v>
   <v>       0.24910700       0.74962638       0.00000000 </v>
   <v>       0.74914881       0.24985542       0.00000000 </v>
   <v>       0.74535422       0.77699120       0.50000000 </v>
   <v>       0.25455113       0.27838513       0.25171031 </v>
   <v>       0.98981613       0.98464456       0.74969636 </v>
   <v>       0.51683444       0.98854077       0.74834009 </v>
   <v>       0.74864522       0.75141802       0.00000000 </v>
   <v>       0.00398165       0.00503780       0.12794781 </v>
   <v>       0.00777018       0.01391008       0.62643117 </v>
   <v>       0.00501459       0.49626335       0.12599009 </v>
   <v>       0.99143536       0.51299646       0.62169231 </v>
   <v>       0.49573744       0.00595497       0.12909559 </v>
   <v>       0.48602948       0.01394799       0.62629369 </v>
   <v>       0.49495890       0.49873638       0.12628033 </v>
   <v>       0.50942051       0.51065993       0.62137944 </v>
   <v>       0.00777018       0.01391008       0.37356883 </v>
   <v>       0.00398165       0.00503780       0.87205219 </v>
   <v>       0.99143536       0.51299646       0.37830769 </v>
   <v>       0.00501459       0.49626335       0.87400991 </v>
   <v>       0.48602948       0.01394799       0.37370631 </v>
   <v>       0.49573744       0.00595497       0.87090441 </v>
   <v>       0.50942051       0.51065993       0.37862056 </v>
   <v>       0.49495890       0.49873638       0.87371967 </v>
   <v>       0.24439479       0.21714026       0.36378212 </v>
   <v>       0.24603693       0.22228201       0.86150495 </v>
   <v>       0.24802077       0.75020516       0.37538240 </v>
   <v>       0.24990124       0.74935287       0.87376371 </v>
   <v>       0.75015954       0.25021058       0.37548697 </v>
   <v>       0.75081834       0.25172323       0.87430596 </v>
   <v>       0.75567404       0.71205252       0.39121504 </v>
   <v>       0.74871109       0.75797806       0.87135290 </v>
   <v>       0.24603693       0.22228201       0.13849505 </v>
   <v>       0.24439479       0.21714026       0.63621788 </v>
   <v>       0.24990124       0.74935287       0.12623629 </v>
   <v>       0.24802077       0.75020516       0.62461760 </v>
   <v>       0.75081834       0.25172323       0.12569404 </v>
   <v>       0.75015954       0.25021058       0.62451303 </v>
   <v>       0.74871109       0.75797806       0.12864710 </v>
   <v>       0.75567404       0.71205252       0.60878496 </v>
   <v>       0.61096077       0.14047300       0.25127359 </v>
   <v>       0.87004686       0.11699747       0.25016312 </v>
   <v>       0.13745982       0.39429844       0.25767182 </v>
   <v>       0.39962431       0.35713268       0.25601821 </v>
   <v>       0.64138941       0.39198562       0.24882257 </v>
   <v>       0.89107381       0.36182582       0.25295081 </v>
   <v>       0.10747662       0.64428958       0.25035353 </v>
   <v>       0.35967894       0.61134156       0.25259066 </v>
   <v>       0.60786828       0.64237509       0.24803978 </v>
   <v>       0.85670655       0.60619593       0.24461859 </v>
   <v>       0.14421451       0.89973316       0.25051388 </v>
   <v>       0.38716061       0.86700862       0.25116334 </v>
   <v>       0.64770828       0.88507387       0.26635177 </v>
   <v>       0.88938821       0.85085048       0.26003148 </v>
   <v>       0.14553558       0.10468283       0.50000000 </v>
   <v>       0.39171861       0.14609967       0.50000000 </v>
   <v>       0.63945624       0.11167124       0.50000000 </v>
   <v>       0.89144881       0.14391844       0.50000000 </v>
   <v>       0.11064049       0.34799079       0.50000000 </v>
   <v>       0.34844549       0.38500808       0.50000000 </v>
   <v>       0.61279968       0.36691130       0.50000000 </v>
   <v>       0.85748444       0.39701083       0.50000000 </v>
   <v>       0.13106189       0.61593424       0.50000000 </v>
   <v>       0.38824349       0.63995405       0.50000000 </v>
   <v>       0.10930616       0.86204569       0.50000000 </v>
   <v>       0.35860548       0.89071550       0.50000000 </v>
   <v>       0.60054393       0.86063610       0.50000000 </v>
   <v>       0.86421705       0.89458750       0.50000000 </v>
   <v>       0.61096077       0.14047300       0.74872641 </v>
   <v>       0.87004686       0.11699747       0.74983688 </v>
   <v>       0.13745982       0.39429844       0.74232818 </v>
   <v>       0.39962431       0.35713268       0.74398179 </v>
   <v>       0.64138941       0.39198562       0.75117743 </v>
   <v>       0.89107381       0.36182582       0.74704919 </v>
   <v>       0.10747662       0.64428958       0.74964647 </v>
   <v>       0.35967894       0.61134156       0.74740934 </v>
   <v>       0.60786828       0.64237509       0.75196022 </v>
   <v>       0.85670655       0.60619593       0.75538141 </v>
   <v>       0.14421451       0.89973316       0.74948612 </v>
   <v>       0.38716061       0.86700862       0.74883666 </v>
   <v>       0.64770828       0.88507387       0.73364823 </v>
   <v>       0.88938821       0.85085048       0.73996852 </v>
   <v>       0.13768590       0.11225454       0.00000000 </v>
   <v>       0.38568393       0.13710400       0.00000000 </v>
   <v>       0.63485558       0.11354563       0.00000000 </v>
   <v>       0.88703088       0.13462824       0.00000000 </v>
   <v>       0.11688072       0.35757495       0.00000000 </v>
   <v>       0.35913978       0.38010557       0.00000000 </v>
   <v>       0.61192199       0.36607178       0.00000000 </v>
   <v>       0.86767955       0.38502088       0.00000000 </v>
   <v>       0.13352335       0.61249566       0.00000000 </v>
   <v>       0.38337504       0.63167493       0.00000000 </v>
   <v>       0.63223682       0.61492852       0.00000000 </v>
   <v>       0.88474896       0.63336858       0.00000000 </v>
   <v>       0.11399946       0.86574784       0.00000000 </v>
   <v>       0.36689822       0.88551108       0.00000000 </v>
   <v>       0.61267486       0.86697669       0.00000000 </v>
   <v>       0.86575550       0.88709055       0.00000000 </v>
  </varray>
 </structure>
 <calculation>
  <scstep>
   <time name="dav">  148.67  148.68</time>
   <time name="total">  150.98  151.10</time>
   <energy>
    <i name="alphaZ">   5623.87439069 </i>
    <i name="ewald"> -61838.79411515 </i>
    <i name="hartreedc"> -16729.65948896 </i>
    <i name="XCdc">   3074.94617819 </i>
    <i name="pawpsdc"> 113888.50202265 </i>
    <i name="pawaedc">-112940.71811337 </i>
    <i name="eentropy">     -0.00000000 </i>
    <i name="bandstr">  -7084.37225352 </i>
    <i name="atom">  74916.81196153 </i>
    <i name="e_fr_energy">  -1089.40941793 </i>
    <i name="e_wo_entrp">  -1089.40941793 </i>
    <i name="e_0_energy">  -1089.40941793 </i>
   </energy>
  </scstep>
  <scstep>
   <time name="diag">   16.61   16.61</time>
   <time name="diis">   15.81   15.82</time>
   <time name="orth">    9.45    9.45</time>
   <time name="total">   44.21   44.23</time>
   <energy>
    <i name="e_fr_energy">  -1089.40942166 </i>
    <i name="e_wo_entrp">  -1089.40942166 </i>
    <i name="e_0_energy">  -1089.40942166 </i>
   </energy>
  </scstep>
  <scstep>
   <time name="diag">   16.58   16.58</time>
   <time name="diis">   15.61   15.61</time>
   <time name="orth">    9.46    9.46</time>
   <time name="total">   43.98   44.03</time>
   <energy>
    <i name="e_fr_energy">  -1089.40942270 </i>
    <i name="e_wo_entrp">  -1089.40942270 </i>
    <i name="e_0_energy">  -1089.40942270 </i>
   </energy>
  </scstep>
  <scstep>
   <time name="diag">   16.59   16.59</time>
   <time name="diis">   15.34   15.34</time>
   <time name="orth">    9.45    9.45</time>
   <time name="total">   43.71   43.74</time>
   <energy>
    <i name="e_fr_energy">  -1089.40942562 </i>
    <i name="e_wo_entrp">  -1089.40942562 </i>
    <i name="e_0_energy">  -1089.40942562 </i>
   </energy>
  </scstep>
  <scstep>
   <time name="diag">   16.59   16.60</time>
   <time name="diis">   15.37   15.37</time>
   <time name="orth">    9.46    9.46</time>
   <time name="total">   43.75   43.82</time>
   <energy>
    <i name="e_fr_energy">  -1089.40942778 </i>
    <i name="e_wo_entrp">  -1089.40942778 </i>
    <i name="e_0_energy">  -1089.40942778 </i>
   </energy>
  </scstep>
  <scstep>
   <time name="diag">   16.58   16.58</time>
   <time name="diis">   13.96   13.96</time>
   <time name="orth">    9.46    9.46</time>
   <time name="total">   42.34   42.38</time>
   <energy>
    <i name="e_fr_energy">  -1089.40942889 </i>
    <i name="e_wo_entrp">  -1089.40942889 </i>
    <i name="e_0_energy">  -1089.40942889 </i>
   </energy>
  </scstep>
  <scstep>
   <time name="diag">   16.52   16.52</time>
   <time name="diis">   13.27   13.28</time>
   <time name="orth">    9.46    9.46</time>
   <time name="total">   41.58   41.65</time>
   <energy>
    <i name="e_fr_energy">  -1089.40942916 </i>
    <i name="e_wo_entrp">  -1089.40942916 </i>
    <i name="e_0_energy">  -1089.40942916 </i>
   </energy>
  </scstep>
  <scstep>
   <time name="diag">   16.57   16.57</time>
   <time name="diis">   12.48   12.49</time>
   <time name="orth">    9.46    9.46</time>
   <time name="total">   39.09   39.16</time>
   <energy>
    <i name="alphaZ">   5623.87439069 </i>
    <i name="ewald"> -61838.79411515 </i>
    <i name="hartreedc"> -16729.72122929 </i>
    <i name="XCdc">   3074.94907427 </i>
    <i name="pawpsdc"> 113884.41632693 </i>
    <i name="pawaedc">-112936.58311991 </i>
    <i name="eentropy">     -0.00000000 </i>
    <i name="bandstr">  -7084.36271845 </i>
    <i name="atom">  74916.81196153 </i>
    <i name="e_fr_energy">  -1089.40942937 </i>
    <i name="e_wo_entrp">  -1089.40942937 </i>
    <i name="e_0_energy">  -1089.40942937 </i>
   </energy>
  </scstep>
  <structure>
   <crystal>
    <varray name="basis" >
     <v>      11.25150345       0.00043358       0.00000000 </v>
     <v>       0.00049407      11.27042379       0.00000000 </v>
     <v>       0.00000000       0.00000000      15.80854811 </v>
    </varray>
    <i name="volume">   2004.66952648 </i>
    <varray name="rec_basis" >
     <v>       0.08887701      -0.00000390       0.00000000 </v>
     <v>      -0.00000342       0.08872781       0.00000000 </v>
     <v>       0.00000000       0.00000000       0.06325692 </v>
    </varray>
   </crystal>
   <varray name="positions" >
    <v>       0.99140018       0.25019521       0.11868911 </v>
    <v>       0.99587337       0.24872481       0.62508366 </v>
    <v>       0.99891350       0.74937344       0.12052745 </v>
    <v>       0.00452123       0.74709054       0.62535284 </v>
    <v>       0.50678466       0.24986367       0.12099588 </v>
    <v>       0.50827333       0.24951035       0.62342498 </v>
    <v>       0.49751607       0.75012107       0.11968117 </v>
    <v>       0.49550226       0.75043440       0.62834112 </v>
    <v>       0.99587337       0.24872481       0.37491634 </v>
    <v>       0.99140018       0.25019521       0.88131089 </v>
    <v>       0.00452123       0.74709054       0.37464716 </v>
    <v>       0.99891350       0.74937344       0.87947255 </v>
    <v>       0.50827333       0.24951035       0.37657502 </v>
    <v>       0.50678466       0.24986367       0.87900412 </v>
    <v>       0.49550226       0.75043440       0.37165888 </v>
    <v>       0.49751607       0.75012107       0.88031883 </v>
    <v>       0.24849592       0.98917746       0.11682834 </v>
    <v>       0.24943644       0.98930355       0.62180757 </v>
    <v>       0.24935341       0.51184440       0.12083180 </v>
    <v>       0.24767050       0.51397744       0.62430216 </v>
    <v>       0.75090291       0.00223119       0.12019863 </v>
    <v>       0.75646917       0.01423856       0.62585505 </v>
    <v>       0.74857063       0.49837639       0.11937846 </v>
    <v>       0.75229419       0.49038556       0.63116674 </v>
    <v>       0.24943644       0.98930355       0.37819243 </v>
    <v>       0.24849592       0.98917746       0.88317166 </v>
    <v>       0.24767050       0.51397744       0.37569784 </v>
    <v>       0.24935341       0.51184440       0.87916820 </v>
    <v>       0.75646917       0.01423856       0.37414495 </v>
    <v>       0.75090291       0.00223119       0.87980137 </v>
    <v>       0.75229419       0.49038556       0.36883326 </v>
    <v>       0.74857063       0.49837639       0.88062154 </v>
    <v>       0.99855514       0.99905845       0.00000000 </v>
    <v>       0.99885172       0.50071537       0.00000000 </v>
    <v>       0.24965887       0.75587370       0.24766961 </v>
    <v>       0.50109794       0.99971877       0.00000000 </v>
    <v>       0.24943771       0.23973126       0.50000000 </v>
    <v>       0.99724670       0.50286776       0.74928041 </v>
    <v>       0.49760165       0.00423728       0.50000000 </v>
    <v>       0.75064767       0.25662542       0.50000000 </v>
    <v>       0.00350507       0.00335374       0.50000000 </v>
    <v>       0.24919115       0.24424240       0.00000000 </v>
    <v>       0.24965887       0.75587370       0.75233039 </v>
    <v>       0.75041076       0.24922277       0.24683787 </v>
    <v>       0.75027184       0.74490351       0.24906976 </v>
    <v>       0.75027184       0.74490351       0.75093024 </v>
    <v>       0.75041076       0.24922277       0.75316213 </v>
    <v>       0.49981018       0.50055865       0.00000000 </v>
    <v>       0.99724670       0.50286776       0.25071959 </v>
    <v>       0.25035937       0.74935370       0.50000000 </v>
    <v>       0.50217300       0.50296432       0.25143851 </v>
    <v>       0.50217300       0.50296432       0.74856149 </v>
    <v>       0.48326260       0.48816528       0.50000000 </v>
    <v>       0.51683444       0.98854077       0.25165991 </v>
    <v>       0.01030170       0.48451584       0.50000000 </v>
    <v>       0.98981613       0.98464456       0.25030364 </v>
    <v>       0.25455113       0.27838513       0.74828969 </v>
    <v>       0.24910700       0.74962638       0.00000000 </v>
    <v>       0.74914881       0.24985542       0.00000000 </v>
    <v>       0.74535422       0.77699120       0.50000000 </v>
    <v>       0.25455113       0.27838513       0.25171031 </v>
    <v>       0.98981613       0.98464456       0.74969636 </v>
    <v>       0.51683444       0.98854077       0.74834009 </v>
    <v>       0.74864522       0.75141802       0.00000000 </v>
    <v>       0.00398165       0.00503780       0.12794781 </v>
    <v>       0.00777018       0.01391008       0.62643117 </v>
    <v>       0.00501459       0.49626335       0.12599009 </v>
    <v>       0.99143536       0.51299646       0.62169231 </v>
    <v>       0.49573744       0.00595497       0.12909559 </v>
    <v>       0.48602948       0.01394799       0.62629369 </v>
    <v>       0.49495890       0.49873638       0.12628033 </v>
    <v>       0.50942051       0.51065993       0.62137944 </v>
    <v>       0.00777018       0.01391008       0.37356883 </v>
    <v>       0.00398165       0.00503780       0.87205219 </v>
    <v>       0.99143536       0.51299646       0.37830769 </v>
    <v>       0.00501459       0.49626335       0.87400991 </v>
    <v>       0.48602948       0.01394799       0.37370631 </v>
    <v>       0.49573744       0.00595497       0.87090441 </v>
    <v>       0.50942051       0.51065993       0.37862056 </v>
    <v>       0.49495890       0.49873638       0.87371967 </v>
    <v>       0.24439479       0.21714026       0.36378212 </v>
    <v>       0.24603693       0.22228201       0.86150495 </v>
    <v>       0.24802077       0.75020516       0.37538240 </v>
    <v>       0.24990124       0.74935287       0.87376371 </v>
    <v>       0.75015954       0.25021058       0.37548697 </v>
    <v>       0.75081834       0.25172323       0.87430596 </v>
    <v>       0.75567404       0.71205252       0.39121504 </v>
    <v>       0.74871109       0.75797806       0.87135290 </v>
    <v>       0.24603693       0.22228201       0.13849505 </v>
    <v>       0.24439479       0.21714026       0.63621788 </v>
    <v>       0.24990124       0.74935287       0.12623629 </v>
    <v>       0.24802077       0.75020516       0.62461760 </v>
    <v>       0.75081834       0.25172323       0.12569404 </v>
    <v>       0.75015954       0.25021058       0.62451303 </v>
    <v>       0.74871109       0.75797806       0.12864710 </v>
    <v>       0.75567404       0.71205252       0.60878496 </v>
    <v>       0.61096077       0.14047300       0.25127359 </v>
    <v>       0.87004686       0.11699747       0.25016312 </v>
    <v>       0.13745982       0.39429844       0.25767182 </v>
    <v>       0.39962431       0.35713268       0.25601821 </v>
    <v>       0.64138941       0.39198562       0.24882257 </v>
    <v>       0.89107381       0.36182582       0.25295081 </v>
    <v>       0.10747662       0.64428958       0.25035353 </v>
    <v>       0.35967894       0.61134156       0.25259066 </v>
    <v>       0.60786828       0.64237509       0.24803978 </v>
    <v>       0.85670655       0.60619593       0.24461859 </v>
    <v>       0.14421451       0.89973316       0.25051388 </v>
    <v>       0.38716061       0.86700862       0.25116334 </v>
    <v>       0.64770828       0.88507387       0.26635177 </v>
    <v>       0.88938821       0.85085048       0.26003148 </v>
    <v>       0.14553558       0.10468283       0.50000000 </v>
    <v>       0.39171861       0.14609967       0.50000000 </v>
    <v>       0.63945624       0.11167124       0.50000000 </v>
    <v>       0.89144881       0.14391844       0.50000000 </v>
    <v>       0.11064049       0.34799079       0.50000000 </v>
    <v>       0.34844549       0.38500808       0.50000000 </v>
    <v>       0.61279968       0.36691130       0.50000000 </v>
    <v>       0.85748444       0.39701083       0.50000000 </v>
    <v>       0.13106189       0.61593424       0.50000000 </v>
    <v>       0.38824349       0.63995405       0.50000000 </v>
    <v>       0.10930616       0.86204569       0.50000000 </v>
    <v>       0.35860548       0.89071550       0.50000000 </v>
    <v>       0.60054393       0.86063610       0.50000000 </v>
    <v>       0.86421705       0.89458750       0.50000000 </v>
    <v>       0.61096077       0.14047300       0.74872641 </v>
    <v>       0.87004686       0.11699747       0.74983688 </v>
    <v>       0.13745982       0.39429844       0.74232818 </v>
    <v>       0.39962431       0.35713268       0.74398179 </v>
    <v>       0.64138941       0.39198562       0.75117743 </v>
    <v>       0.89107381       0.36182582       0.74704919 </v>
    <v>       0.10747662       0.64428958       0.74964647 </v>
    <v>       0.35967894       0.61134156       0.74740934 </v>
    <v>       0.60786828       0.64237509       0.75196022 </v>
    <v>       0.85670655       0.60619593       0.75538141 </v>
    <v>       0.14421451       0.89973316       0.74948612 </v>
    <v>       0.38716061       0.86700862       0.74883666 </v>
    <v>       0.64770828       0.88507387       0.73364823 </v>
    <v>       0.88938821       0.85085048       0.73996852 </v>
    <v>       0.13768590       0.11225454       0.00000000 </v>
    <v>       0.38568393       0.13710400       0.00000000 </v>
    <v>       0.63485558       0.11354563       0.00000000 </v>
    <v>       0.88703088       0.13462824       0.00000000 </v>
    <v>       0.11688072       0.35757495       0.00000000 </v>
    <v>       0.35913978       0.38010557       0.00000000 </v>
    <v>       0.61192199       0.36607178       0.00000000 </v>
    <v>       0.86767955       0.38502088       0.00000000 </v>
    <v>       0.13352335       0.61249566       0.00000000 </v>
    <v>       0.38337504       0.63167493       0.00000000 </v>
    <v>       0.63223682       0.61492852       0.00000000 </v>
    <v>       0.88474896       0.63336858       0.00000000 </v>
    <v>       0.11399946       0.86574784       0.00000000 </v>
    <v>       0.36689822       0.88551108       0.00000000 </v>
    <v>       0.61267486       0.86697669       0.00000000 </v>
    <v>       0.86575550       0.88709055       0.00000000 </v>
   </varray>
  </structure>
  <varray name="forces" >
   <v>      -0.00266052       0.00622384       0.01083836 </v>
   <v>      -0.01016892       0.01090145       0.00725696 </v>
   <v>      -0.00936954       0.00282023       0.00408339 </v>
   <v>       0.00757968       0.01560824      -0.01132749 </v>
   <v>      -0.00028102      -0.00028872       0.00642546 </v>
   <v>       0.00253798      -0.00215826      -0.00047485 </v>
   <v>      -0.00706695       0.00806197       0.00569937 </v>
   <v>      -0.00167031       0.00825847      -0.00063368 </v>
   <v>      -0.01016892       0.01090145      -0.00725696 </v>
   <v>      -0.00266052       0.00622384      -0.01083836 </v>
   <v>       0.00757968       0.01560824       0.01132749 </v>
   <v>      -0.00936954       0.00282023      -0.00408339 </v>
   <v>       0.00253798      -0.00215826       0.00047485 </v>
   <v>      -0.00028102      -0.00028872      -0.00642546 </v>
   <v>      -0.00167031       0.00825847       0.00063368 </v>
   <v>      -0.00706695       0.00806197      -0.00569937 </v>
   <v>      -0.00541543       0.01453476       0.00723528 </v>
   <v>       0.00857585       0.02939818      -0.00220607 </v>
   <v>      -0.00450554      -0.00735574      -0.00750452 </v>
   <v>      -0.00413130      -0.02335356      -0.00761281 </v>
   <v>       0.00251738      -0.00973008       0.00498939 </v>
   <v>       0.01502551      -0.01762405       0.00415754 </v>
   <v>      -0.01498520      -0.00224461       0.00919752 </v>
   <v>      -0.00022323       0.01638268       0.00167445 </v>
   <v>       0.00857585       0.02939818       0.00220607 </v>
   <v>      -0.00541543       0.01453476      -0.00723528 </v>
   <v>      -0.00413130      -0.02335356       0.00761281 </v>
   <v>      -0.00450554      -0.00735574       0.00750452 </v>
   <v>       0.01502551      -0.01762405      -0.00415754 </v>
   <v>       0.00251738      -0.00973008      -0.00498939 </v>
   <v>      -0.00022323       0.01638268      -0.00167445 </v>
   <v>      -0.01498520      -0.00224461      -0.00919752 </v>
   <v>      -0.00066655      -0.00859549       0.00000000 </v>
   <v>       0.05025876       0.03136647       0.00000000 </v>
   <v>      -0.00550204       0.01490791      -0.01454513 </v>
   <v>      -0.01836248       0.02501268       0.00000000 </v>
   <v>       0.02385514       0.02320782       0.00000000 </v>
   <v>       0.03112359      -0.00735913       0.00378159 </v>
   <v>       0.02630821      -0.01172762       0.00000000 </v>
   <v>      -0.00013093      -0.01344846       0.00000000 </v>
   <v>      -0.03629605      -0.01739353       0.00000000 </v>
   <v>       0.01456243      -0.01252757       0.00000000 </v>
   <v>      -0.00550204       0.01490791       0.01454513 </v>
   <v>       0.00747123      -0.02312425      -0.00903676 </v>
   <v>      -0.02166587       0.03127798       0.00919633 </v>
   <v>      -0.02166587       0.03127798      -0.00919633 </v>
   <v>       0.00747123      -0.02312425       0.00903676 </v>
   <v>      -0.02257799      -0.02478152       0.00000000 </v>
   <v>       0.03112359      -0.00735913      -0.00378159 </v>
   <v>      -0.00848151      -0.01743905       0.00000000 </v>
   <v>      -0.02691902      -0.02455375      -0.01181903 </v>
   <v>      -0.02691902      -0.02455375       0.01181903 </v>
   <v>       0.00033097      -0.01330522       0.00000000 </v>
   <v>       0.00551453      -0.00169100      -0.01674527 </v>
   <v>       0.02190818      -0.01038889       0.00000000 </v>
   <v>      -0.00145871       0.00410255      -0.01821620 </v>
   <v>       0.00142946      -0.00935042       0.02784529 </v>
   <v>       0.00805636      -0.03702141       0.00000000 </v>
   <v>       0.00479363       0.00828867       0.00000000 </v>
   <v>       0.01128617       0.02833189       0.00000000 </v>
   <v>       0.00142946      -0.00935042      -0.02784529 </v>
   <v>      -0.00145871       0.00410255       0.01821620 </v>
   <v>       0.00551453      -0.00169100       0.01674527 </v>
   <v>      -0.00018341       0.01192034       0.00000000 </v>
   <v>      -0.00418392       0.00362741       0.00259978 </v>
   <v>       0.01185479       0.00451480      -0.00858007 </v>
   <v>      -0.02352472       0.00711892       0.00001737 </v>
   <v>      -0.00555530       0.01312557      -0.00739011 </v>
   <v>       0.00204013      -0.01224745       0.01054771 </v>
   <v>      -0.01545307       0.01298820      -0.00180737 </v>
   <v>       0.00834688      -0.00184029       0.00444310 </v>
   <v>       0.01251467      -0.00094572      -0.01581994 </v>
   <v>       0.01185479       0.00451480       0.00858007 </v>
   <v>      -0.00418392       0.00362741      -0.00259978 </v>
   <v>      -0.00555530       0.01312557       0.00739011 </v>
   <v>      -0.02352472       0.00711892      -0.00001737 </v>
   <v>      -0.01545307       0.01298820       0.00180737 </v>
   <v>       0.00204013      -0.01224745      -0.01054771 </v>
   <v>       0.01251467      -0.00094572       0.01581994 </v>
   <v>       0.00834688      -0.00184029      -0.00444310 </v>
   <v>      -0.00242997      -0.00102465       0.00481615 </v>
   <v>       0.00372773       0.00065362      -0.01993112 </v>
   <v>      -0.00233668      -0.01380180       0.00234025 </v>
   <v>      -0.00659173      -0.00813297       0.00469766 </v>
   <v>       0.00063797      -0.01085095       0.01769612 </v>
   <v>       0.00544040      -0.01231641       0.01931646 </v>
   <v>      -0.00380390      -0.00726298       0.00857217 </v>
   <v>      -0.00381781      -0.00056373       0.02732086 </v>
   <v>       0.00372773       0.00065362       0.01993112 </v>
   <v>      -0.00242997      -0.00102465      -0.00481615 </v>
   <v>      -0.00659173      -0.00813297      -0.00469766 </v>
   <v>      -0.00233668      -0.01380180      -0.00234025 </v>
   <v>       0.00544040      -0.01231641      -0.01931646 </v>
   <v>       0.00063797      -0.01085095      -0.01769612 </v>
   <v>      -0.00381781      -0.00056373      -0.02732086 </v>
   <v>      -0.00380390      -0.00726298      -0.00857217 </v>
   <v>       0.00418618      -0.01502863      -0.00611808 </v>
   <v>       0.01770790      -0.01553146      -0.00852766 </v>
   <v>       0.00181799       0.00129872      -0.01850073 </v>
   <v>       0.00833727      -0.01812939       0.00280138 </v>
   <v>       0.01294033      -0.00984162       0.00809083 </v>
   <v>      -0.00815369       0.01543714      -0.00473892 </v>
   <v>      -0.00241913       0.01059413      -0.00675399 </v>
   <v>      -0.00233043       0.00054331      -0.00474680 </v>
   <v>       0.01892992       0.00384779      -0.00172948 </v>
   <v>       0.00062192       0.01120796       0.00275806 </v>
   <v>       0.01676742       0.00351065       0.00769807 </v>
   <v>      -0.00341207       0.00314274       0.00085911 </v>
   <v>      -0.00967343      -0.00929189       0.00326800 </v>
   <v>      -0.00094494      -0.00369587      -0.00727845 </v>
   <v>      -0.00715561       0.01101191       0.00000000 </v>
   <v>      -0.00002341       0.00486088       0.00000000 </v>
   <v>       0.01757264       0.01478208       0.00000000 </v>
   <v>      -0.01267243       0.02993423       0.00000000 </v>
   <v>      -0.01502450       0.03244396       0.00000000 </v>
   <v>       0.02166750       0.02868842       0.00000000 </v>
   <v>      -0.00280185       0.01292444       0.00000000 </v>
   <v>       0.00694570      -0.00545707       0.00000000 </v>
   <v>      -0.01158140      -0.01301853       0.00000000 </v>
   <v>       0.00605541       0.00546477       0.00000000 </v>
   <v>       0.02899622       0.00317409       0.00000000 </v>
   <v>      -0.02281018      -0.01351508       0.00000000 </v>
   <v>      -0.00443161      -0.01211228       0.00000000 </v>
   <v>       0.00003457      -0.01971835       0.00000000 </v>
   <v>       0.00418618      -0.01502863       0.00611808 </v>
   <v>       0.01770790      -0.01553146       0.00852766 </v>
   <v>       0.00181799       0.00129872       0.01850073 </v>
   <v>       0.00833727      -0.01812939      -0.00280138 </v>
   <v>       0.01294033      -0.00984162      -0.00809083 </v>
   <v>      -0.00815369       0.01543714       0.00473892 </v>
   <v>      -0.00241913       0.01059413       0.00675399 </v>
   <v>      -0.00233043       0.00054331       0.00474680 </v>
   <v>       0.01892992       0.00384779       0.00172948 </v>
   <v>       0.00062192       0.01120796      -0.00275806 </v>
   <v>       0.01676742       0.00351065      -0.00769807 </v>
   <v>      -0.00341207       0.00314274      -0.00085911 </v>
   <v>      -0.00967343      -0.00929189      -0.00326800 </v>
   <v>      -0.00094494      -0.00369587       0.00727845 </v>
   <v>      -0.01964223       0.01322052       0.00000000 </v>
   <v>      -0.03975957      -0.01038696       0.00000000 </v>
   <v>      -0.00172357       0.01961422       0.00000000 </v>
   <v>      -0.04291992       0.00109391       0.00000000 </v>
   <v>      -0.00197457       0.00890183       0.00000000 </v>
   <v>      -0.00086191      -0.01145414       0.00000000 </v>
   <v>       0.02723661       0.01534783       0.00000000 </v>
   <v>       0.00555101      -0.02548303       0.00000000 </v>
   <v>      -0.01959719       0.02264613       0.00000000 </v>
   <v>      -0.01594475      -0.00955586       0.00000000 </v>
   <v>       0.01848695       0.00495147       0.00000000 </v>
   <v>      -0.01081475       0.00478805       0.00000000 </v>
   <v>       0.02526327      -0.00549457       0.00000000 </v>
   <v>      -0.03219645      -0.03024524       0.00000000 </v>
   <v>       0.02960103       0.01412924       0.00000000 </v>
   <v>       0.00587941      -0.02253567       0.00000000 </v>
  </varray>
  <varray name="stress" >
   <v>       0.23367135      -0.00477836       0.00000000 </v>
   <v>      -0.00477800       0.83904991       0.00000000 </v>
   <v>       0.00000000       0.00000000      -0.18011320 </v>
  </varray>
  <energy>
   <i name="e_fr_energy">  -1089.40942937 </i>
   <i name="e_wo_entrp">  -1089.40942937 </i>
   <i name="e_0_energy">     -0.00000000 </i>
  </energy>
  <time name="totalsc">  541.29  543.51</time>
 </calculation>
 <calculation>
  <scstep>
   <time name="dav">  142.17  142.17</time>
   <time name="total">  144.48  144.57</time>
   <energy>
    <i name="alphaZ">   5621.90746609 </i>
    <i name="ewald"> -61830.81100292 </i>
    <i name="hartreedc"> -16728.58202307 </i>
    <i name="XCdc">   3074.48827406 </i>
    <i name="pawpsdc"> 113884.43614872 </i>
    <i name="pawaedc">-112936.60123679 </i>
    <i name="eentropy">     -0.00000000 </i>
    <i name="bandstr">  -7091.06011447 </i>
    <i name="atom">  74916.81196153 </i>
    <i name="e_fr_energy">  -1089.41052685 </i>
    <i name="e_wo_entrp">  -1089.41052685 </i>
    <i name="e_0_energy">  -1089.41052685 </i>
   </energy>
  </scstep>
  <scstep>
   <time name="diag">   16.58   16.57</time>
   <time name="diis">   25.91   25.91</time>
   <time name="orth">    9.42    9.42</time>
   <time name="total">   54.22   54.26</time>
   <energy>
    <i name="e_fr_energy">  -1089.41166654 </i>
    <i name="e_wo_entrp">  -1089.41166654 </i>
    <i name="e_0_energy">  -1089.41166654 </i>
   </energy>
  </scstep>
  <scstep>
   <time name="diag">   16.55   16.55</time>
   <time name="diis">   26.05   26.06</time>
   <time name="orth">    9.44    9.45</time>
   <time name="total">   54.38   54.42</time>
   <energy>
    <i name="e_fr_energy">  -1089.41151361 </i>
    <i name="e_wo_entrp">  -1089.41151361 </i>
    <i name="e_0_energy">  -1089.41151361 </i>
   </energy>
  </scstep>
  <scstep>
   <time name="diag">   16.61   16.61</time>
   <time name="diis">   24.21   24.22</time>
   <time name="orth">    9.43    9.44</time>
   <time name="total">   52.56   52.59</time>
   <energy>
    <i name="e_fr_energy">  -1089.41131964 </i>
    <i name="e_wo_entrp">  -1089.41131964 </i>
    <i name="e_0_energy">  -1089.41131964 </i>
   </energy>
  </scstep>
  <scstep>
   <time name="diag">   16.55   16.57</time>
   <time name="diis">   16.38   16.38</time>
   <time name="orth">    9.43    9.43</time>
   <time name="total">   44.68   44.81</time>
   <energy>
    <i name="e_fr_energy">  -1089.41127227 </i>
    <i name="e_wo_entrp">  -1089.41127227 </i>
    <i name="e_0_energy">  -1089.41127227 </i>
   </energy>
  </scstep>
  <scstep>
   <time name="diag">   16.58   16.58</time>
   <time name="diis">   16.13   16.13</time>
   <time name="orth">    9.43    9.43</time>
   <time name="total">   44.47   44.56</time>
   <energy>
    <i name="e_fr_energy">  -1089.41126861 </i>
    <i name="e_wo_entrp">  -1089.41126861 </i>
    <i name="e_0_energy">  -1089.41126861 </i>
   </energy>
  </scstep>
  <scstep>
   <time name="diag">   16.57   16.58</time>
   <time name="diis">   15.91   15.91</time>
   <time name="orth">    9.44    9.44</time>
   <time name="total">   44.27   44.33</time>
   <energy>
    <i name="e_fr_energy">  -1089.41126742 </i>
    <i name="e_wo_entrp">  -1089.41126742 </i>
    <i name="e_0_energy">  -1089.41126742 </i>
   </energy>
  </scstep>
  <scstep>
   <time name="diag">   16.55   16.56</time>
   <time name="diis">   15.81   15.81</time>
   <time name="orth">    9.48    9.48</time>
   <time name="total">   42.41   42.46</time>
   <energy>
    <i name="alphaZ">   5621.90746609 </i>
    <i name="ewald"> -61830.81100292 </i>
    <i name="hartreedc"> -16733.76760091 </i>
    <i name="XCdc">   3074.82790795 </i>
    <i name="pawpsdc"> 113800.23037290 </i>
    <i name="pawaedc">-112852.36164890 </i>
    <i name="eentropy">     -0.00000000 </i>
    <i name="bandstr">  -7086.24872219 </i>
    <i name="atom">  74916.81196153 </i>
    <i name="e_fr_energy">  -1089.41126645 </i>
    <i name="e_wo_entrp">  -1089.41126645 </i>
    <i name="e_0_energy">  -1089.41126645 </i>
   </energy>
  </scstep>
  <structure>
   <crystal>
    <varray name="basis" >
     <v>      11.25253397       0.00041265       0.00000000 </v>
     <v>       0.00047301      11.27413035       0.00000000 </v>
     <v>       0.00000000       0.00000000      15.80743206 </v>
    </varray>
    <i name="volume">   2005.37089587 </i>
    <varray name="rec_basis" >
     <v>       0.08886887      -0.00000373       0.00000000 </v>
     <v>      -0.00000325       0.08869864       0.00000000 </v>
     <v>       0.00000000       0.00000000       0.06326138 </v>
    </varray>
   </crystal>
   <varray name="positions" >
    <v>       0.99138877       0.25022185       0.11872218 </v>
    <v>       0.99582977       0.24877148       0.62510580 </v>
    <v>       0.99887333       0.74938551       0.12053991 </v>
    <v>       0.00455373       0.74715735       0.62531827 </v>
    <v>       0.50678345       0.24986243       0.12101549 </v>
    <v>       0.50828421       0.24950111       0.62342353 </v>
    <v>       0.49748577       0.75015558       0.11969856 </v>
    <v>       0.49549510       0.75046975       0.62833919 </v>
    <v>       0.99582977       0.24877148       0.37489420 </v>
    <v>       0.99138877       0.25022185       0.88127782 </v>
    <v>       0.00455373       0.74715735       0.37468173 </v>
    <v>       0.99887333       0.74938551       0.87946009 </v>
    <v>       0.50828421       0.24950111       0.37657647 </v>
    <v>       0.50678345       0.24986243       0.87898451 </v>
    <v>       0.49549510       0.75046975       0.37166081 </v>
    <v>       0.49748577       0.75015558       0.88030144 </v>
    <v>       0.24847270       0.98923967       0.11685042 </v>
    <v>       0.24947321       0.98942939       0.62180084 </v>
    <v>       0.24933409       0.51181291       0.12080889 </v>
    <v>       0.24765280       0.51387748       0.62427893 </v>
    <v>       0.75091370       0.00218954       0.12021386 </v>
    <v>       0.75653360       0.01416312       0.62586774 </v>
    <v>       0.74850638       0.49836679       0.11940653 </v>
    <v>       0.75229323       0.49045569       0.63117185 </v>
    <v>       0.24947321       0.98942939       0.37819916 </v>
    <v>       0.24847270       0.98923967       0.88314958 </v>
    <v>       0.24765280       0.51387748       0.37572107 </v>
    <v>       0.24933409       0.51181291       0.87919111 </v>
    <v>       0.75653360       0.01416312       0.37413226 </v>
    <v>       0.75091370       0.00218954       0.87978614 </v>
    <v>       0.75229323       0.49045569       0.36882815 </v>
    <v>       0.74850638       0.49836679       0.88059347 </v>
    <v>       0.99855229       0.99902166       0.00000000 </v>
    <v>       0.99906720       0.50084962       0.00000000 </v>
    <v>       0.24963528       0.75593751       0.24762523 </v>
    <v>       0.50101921       0.99982584       0.00000000 </v>
    <v>       0.24953999       0.23983060       0.50000000 </v>
    <v>       0.99738015       0.50283626       0.74929195 </v>
    <v>       0.49771445       0.00418708       0.50000000 </v>
    <v>       0.75064712       0.25656786       0.50000000 </v>
    <v>       0.00334945       0.00327929       0.50000000 </v>
    <v>       0.24925359       0.24418878       0.00000000 </v>
    <v>       0.24963528       0.75593751       0.75237477 </v>
    <v>       0.75044280       0.24912378       0.24681029 </v>
    <v>       0.75017893       0.74503739       0.24909782 </v>
    <v>       0.75017893       0.74503739       0.75090218 </v>
    <v>       0.75044280       0.24912378       0.75318971 </v>
    <v>       0.49971337       0.50045258       0.00000000 </v>
    <v>       0.99738015       0.50283626       0.25070805 </v>
    <v>       0.25032301       0.74927905       0.50000000 </v>
    <v>       0.50205758       0.50285922       0.25140244 </v>
    <v>       0.50205758       0.50285922       0.74859756 </v>
    <v>       0.48326403       0.48810833       0.50000000 </v>
    <v>       0.51685809       0.98853354       0.25160881 </v>
    <v>       0.01039564       0.48447137       0.50000000 </v>
    <v>       0.98980987       0.98466212       0.25024805 </v>
    <v>       0.25455726       0.27834510       0.74837467 </v>
    <v>       0.24914155       0.74946791       0.00000000 </v>
    <v>       0.74916936       0.24989090       0.00000000 </v>
    <v>       0.74540260       0.77711247       0.50000000 </v>
    <v>       0.25455726       0.27834510       0.25162533 </v>
    <v>       0.98980987       0.98466212       0.74975195 </v>
    <v>       0.51685809       0.98853354       0.74839119 </v>
    <v>       0.74864443       0.75146904       0.00000000 </v>
    <v>       0.00396371       0.00505333       0.12795574 </v>
    <v>       0.00782101       0.01392941       0.62640499 </v>
    <v>       0.00491372       0.49629383       0.12599014 </v>
    <v>       0.99141154       0.51305264       0.62166976 </v>
    <v>       0.49574618       0.00590255       0.12912777 </v>
    <v>       0.48596322       0.01400359       0.62628817 </v>
    <v>       0.49499469       0.49872850       0.12629389 </v>
    <v>       0.50947417       0.51065588       0.62133116 </v>
    <v>       0.00782101       0.01392941       0.37359501 </v>
    <v>       0.00396371       0.00505333       0.87204426 </v>
    <v>       0.99141154       0.51305264       0.37833024 </v>
    <v>       0.00491372       0.49629383       0.87400986 </v>
    <v>       0.48596322       0.01400359       0.37371183 </v>
    <v>       0.49574618       0.00590255       0.87087223 </v>
    <v>       0.50947417       0.51065588       0.37866884 </v>
    <v>       0.49499469       0.49872850       0.87370611 </v>
    <v>       0.24438437       0.21713588       0.36379682 </v>
    <v>       0.24605292       0.22228481       0.86144413 </v>
    <v>       0.24801076       0.75014608       0.37538954 </v>
    <v>       0.24987297       0.74931806       0.87377805 </v>
    <v>       0.75016228       0.25016414       0.37554097 </v>
    <v>       0.75084167       0.25167051       0.87436490 </v>
    <v>       0.75565773       0.71202143       0.39124120 </v>
    <v>       0.74869472       0.75797565       0.87143628 </v>
    <v>       0.24605292       0.22228481       0.13855587 </v>
    <v>       0.24438437       0.21713588       0.63620318 </v>
    <v>       0.24987297       0.74931806       0.12622195 </v>
    <v>       0.24801076       0.75014608       0.62461046 </v>
    <v>       0.75084167       0.25167051       0.12563510 </v>
    <v>       0.75016228       0.25016414       0.62445903 </v>
    <v>       0.74869472       0.75797565       0.12856372 </v>
    <v>       0.75565773       0.71202143       0.60875880 </v>
    <v>       0.61097873       0.14040867       0.25125492 </v>
    <v>       0.87012279       0.11693099       0.25013710 </v>
    <v>       0.13746761       0.39430400       0.25761536 </v>
    <v>       0.39966006       0.35705508       0.25602676 </v>
    <v>       0.64144490       0.39194349       0.24884726 </v>
    <v>       0.89103884       0.36189190       0.25293635 </v>
    <v>       0.10746624       0.64433493       0.25033291 </v>
    <v>       0.35966894       0.61134388       0.25257617 </v>
    <v>       0.60794945       0.64239156       0.24803450 </v>
    <v>       0.85670921       0.60624390       0.24462701 </v>
    <v>       0.14428640       0.89974819       0.25053737 </v>
    <v>       0.38714598       0.86702207       0.25116596 </v>
    <v>       0.64766681       0.88503410       0.26636174 </v>
    <v>       0.88938416       0.85083466       0.26000927 </v>
    <v>       0.14550489       0.10472996       0.50000000 </v>
    <v>       0.39171851       0.14612048       0.50000000 </v>
    <v>       0.63953158       0.11173451       0.50000000 </v>
    <v>       0.89139447       0.14404657       0.50000000 </v>
    <v>       0.11057607       0.34812966       0.50000000 </v>
    <v>       0.34853838       0.38513088       0.50000000 </v>
    <v>       0.61278766       0.36696662       0.50000000 </v>
    <v>       0.85751422       0.39698747       0.50000000 </v>
    <v>       0.13101224       0.61587852       0.50000000 </v>
    <v>       0.38826945       0.63997744       0.50000000 </v>
    <v>       0.10943049       0.86205927       0.50000000 </v>
    <v>       0.35850768       0.89065765       0.50000000 </v>
    <v>       0.60052493       0.86058426       0.50000000 </v>
    <v>       0.86421720       0.89450309       0.50000000 </v>
    <v>       0.61097873       0.14040867       0.74874508 </v>
    <v>       0.87012279       0.11693099       0.74986290 </v>
    <v>       0.13746761       0.39430400       0.74238464 </v>
    <v>       0.39966006       0.35705508       0.74397324 </v>
    <v>       0.64144490       0.39194349       0.75115274 </v>
    <v>       0.89103884       0.36189190       0.74706365 </v>
    <v>       0.10746624       0.64433493       0.74966709 </v>
    <v>       0.35966894       0.61134388       0.74742383 </v>
    <v>       0.60794945       0.64239156       0.75196550 </v>
    <v>       0.85670921       0.60624390       0.75537299 </v>
    <v>       0.14428640       0.89974819       0.74946263 </v>
    <v>       0.38714598       0.86702207       0.74883404 </v>
    <v>       0.64766681       0.88503410       0.73363826 </v>
    <v>       0.88938416       0.85083466       0.73999073 </v>
    <v>       0.13760168       0.11231114       0.00000000 </v>
    <v>       0.38551346       0.13705954       0.00000000 </v>
    <v>       0.63484818       0.11362959       0.00000000 </v>
    <v>       0.88684685       0.13463293       0.00000000 </v>
    <v>       0.11687226       0.35761306       0.00000000 </v>
    <v>       0.35913609       0.38005655       0.00000000 </v>
    <v>       0.61203877       0.36613747       0.00000000 </v>
    <v>       0.86770336       0.38491180       0.00000000 </v>
    <v>       0.13343932       0.61259260       0.00000000 </v>
    <v>       0.38330667       0.63163403       0.00000000 </v>
    <v>       0.63231608       0.61494971       0.00000000 </v>
    <v>       0.88470259       0.63338908       0.00000000 </v>
    <v>       0.11410778       0.86572432       0.00000000 </v>
    <v>       0.36676018       0.88538162       0.00000000 </v>
    <v>       0.61280178       0.86703717       0.00000000 </v>
    <v>       0.86578072       0.88699409       0.00000000 </v>
   </varray>
  </structure>
  <varray name="forces" >
   <v>      -0.00884028       0.00999266      -0.00537431 </v>
   <v>      -0.00813766       0.00771978      -0.00550240 </v>
   <v>      -0.01722472      -0.00205041       0.00636913 </v>
   <v>       0.00849644       0.00537205      -0.00432936 </v>
   <v>       0.01293351       0.00045859       0.00754032 </v>
   <v>       0.00989127      -0.00130028      -0.00454133 </v>
   <v>       0.00389658       0.00208551       0.00061913 </v>
   <v>      -0.00717947      -0.00228339      -0.00129409 </v>
   <v>      -0.00813766       0.00771978       0.00550240 </v>
   <v>      -0.00884028       0.00999266       0.00537431 </v>
   <v>       0.00849644       0.00537205       0.00432936 </v>
   <v>      -0.01722472      -0.00205041      -0.00636913 </v>
   <v>       0.00989127      -0.00130028       0.00454133 </v>
   <v>       0.01293351       0.00045859      -0.00754032 </v>
   <v>      -0.00717947      -0.00228339       0.00129409 </v>
   <v>       0.00389658       0.00208551      -0.00061913 </v>
   <v>      -0.00732947       0.00144124       0.00362496 </v>
   <v>       0.00226791       0.01930374      -0.01244182 </v>
   <v>      -0.00508617       0.00030437       0.00240223 </v>
   <v>      -0.00317516      -0.01006928      -0.00877490 </v>
   <v>       0.00264846      -0.00929206      -0.00606790 </v>
   <v>       0.01251166      -0.00786172       0.00432523 </v>
   <v>      -0.00293311       0.00352681       0.00705979 </v>
   <v>       0.00246039       0.01263334       0.00280146 </v>
   <v>       0.00226791       0.01930374       0.01244182 </v>
   <v>      -0.00732947       0.00144124      -0.00362496 </v>
   <v>      -0.00317516      -0.01006928       0.00877490 </v>
   <v>      -0.00508617       0.00030437      -0.00240223 </v>
   <v>       0.01251166      -0.00786172      -0.00432523 </v>
   <v>       0.00264846      -0.00929206       0.00606790 </v>
   <v>       0.00246039       0.01263334      -0.00280146 </v>
   <v>      -0.00293311       0.00352681      -0.00705979 </v>
   <v>      -0.01753086      -0.01301500      -0.00000000 </v>
   <v>      -0.06175700      -0.02256969      -0.00000000 </v>
   <v>      -0.00786218       0.00291476       0.00852876 </v>
   <v>       0.01681864      -0.02171320      -0.00000000 </v>
   <v>      -0.00226893      -0.00376721      -0.00000000 </v>
   <v>      -0.01486508       0.02438241      -0.01909092 </v>
   <v>      -0.01564330      -0.02029211      -0.00000000 </v>
   <v>      -0.00697471       0.02415086      -0.00000000 </v>
   <v>       0.01751455       0.01130491      -0.00000000 </v>
   <v>      -0.03470626      -0.00072134      -0.00000000 </v>
   <v>      -0.00786218       0.00291476      -0.00852876 </v>
   <v>       0.00032099       0.01340781      -0.00230763 </v>
   <v>       0.00486709      -0.02778066      -0.02522781 </v>
   <v>       0.00486709      -0.02778066       0.02522781 </v>
   <v>       0.00032099       0.01340781       0.00230763 </v>
   <v>       0.01158226       0.02047400      -0.00000000 </v>
   <v>      -0.01486508       0.02438241       0.01909092 </v>
   <v>       0.01433192       0.00597947      -0.00000000 </v>
   <v>       0.00936114       0.01272218       0.01097607 </v>
   <v>       0.00936114       0.01272218      -0.01097607 </v>
   <v>       0.01640262       0.00819180      -0.00000000 </v>
   <v>      -0.00353310      -0.00343156       0.00716639 </v>
   <v>      -0.00946359       0.00357046      -0.00000000 </v>
   <v>       0.00237578      -0.00907419      -0.00272729 </v>
   <v>      -0.00183812       0.00428606      -0.02295888 </v>
   <v>       0.00552850      -0.00295552      -0.00000000 </v>
   <v>       0.02099428       0.01480216      -0.00000000 </v>
   <v>      -0.01605929      -0.02010180      -0.00000000 </v>
   <v>      -0.00183812       0.00428606       0.02295888 </v>
   <v>       0.00237578      -0.00907419       0.00272729 </v>
   <v>      -0.00353310      -0.00343156      -0.00716639 </v>
   <v>      -0.00135309      -0.00577390      -0.00000000 </v>
   <v>       0.00084030       0.00313439      -0.00600958 </v>
   <v>      -0.00179073      -0.00162178       0.00224424 </v>
   <v>      -0.00680206       0.00625329      -0.00541595 </v>
   <v>       0.00161349       0.01024107       0.00767054 </v>
   <v>      -0.00395329      -0.00305806      -0.00884843 </v>
   <v>      -0.00566280       0.00982472       0.00272705 </v>
   <v>       0.00107728      -0.00843166      -0.00469356 </v>
   <v>       0.00979174      -0.00232133       0.01156814 </v>
   <v>      -0.00179073      -0.00162178      -0.00224424 </v>
   <v>       0.00084030       0.00313439       0.00600958 </v>
   <v>       0.00161349       0.01024107      -0.00767054 </v>
   <v>      -0.00680206       0.00625329       0.00541595 </v>
   <v>      -0.00566280       0.00982472      -0.00272705 </v>
   <v>      -0.00395329      -0.00305806       0.00884843 </v>
   <v>       0.00979174      -0.00232133      -0.01156814 </v>
   <v>       0.00107728      -0.00843166       0.00469356 </v>
   <v>       0.00158594       0.01143829      -0.01453091 </v>
[...]
       <r>   -16.5503     0.0000    32.0000 </r>
       <r>   -16.3976     0.0000    32.0000 </r>
       <r>   -16.2450     0.0000    32.0000 </r>
       <r>   -16.0923     0.0000    32.0000 </r>
       <r>   -15.9396     0.0000    32.0000 </r>
       <r>   -15.7870     0.0000    32.0000 </r>
       <r>   -15.6343     0.0000    32.0000 </r>
       <r>   -15.4817     0.0000    32.0000 </r>
       <r>   -15.3290     0.0001    32.0000 </r>
       <r>   -15.1763     3.5035    32.5349 </r>
       <r>   -15.0237    18.8952    35.4194 </r>
       <r>   -14.8710    46.8985    42.5789 </r>
       <r>   -14.7184    49.7232    50.1696 </r>
       <r>   -14.5657    39.2513    56.1616 </r>
       <r>   -14.4130    30.1370    60.7623 </r>
       <r>   -14.2604    47.1883    67.9660 </r>
       <r>   -14.1077    80.1779    80.2059 </r>
       <r>   -13.9551   104.5205    96.1619 </r>
       <r>   -13.8024    90.4511   109.9701 </r>
       <r>   -13.6497    59.7067   119.0848 </r>
       <r>   -13.4971    19.0721   121.9964 </r>
       <r>   -13.3444     0.0237   122.0000 </r>
       <r>   -13.1918     0.0000   122.0000 </r>
       <r>   -13.0391     0.0000   122.0000 </r>
       <r>   -12.8865     0.0000   122.0000 </r>
       <r>   -12.7338     2.7831   122.4249 </r>
       <r>   -12.5811    59.6963   131.5380 </r>
       <r>   -12.4285   146.2813   153.8692 </r>
       <r>   -12.2758   135.6782   174.5817 </r>
       <r>   -12.1232   119.8378   192.8760 </r>
       <r>   -11.9705    99.6366   208.0865 </r>
       <r>   -11.8178    55.5555   216.5675 </r>
       <r>   -11.6652     9.3826   217.9999 </r>
       <r>   -11.5125     0.0009   218.0000 </r>
       <r>   -11.3599     0.0000   218.0000 </r>
       <r>   -11.2072     0.0000   218.0000 </r>
       <r>   -11.0545     0.0000   218.0000 </r>
       <r>   -10.9019     0.0000   218.0000 </r>
       <r>   -10.7492     0.0000   218.0000 </r>
       <r>   -10.5966     0.0000   218.0000 </r>
       <r>   -10.4439     0.0000   218.0000 </r>
       <r>   -10.2913     0.0000   218.0000 </r>
       <r>   -10.1386     0.0000   218.0000 </r>
       <r>    -9.9859     0.0000   218.0000 </r>
       <r>    -9.8333     0.0000   218.0000 </r>
       <r>    -9.6806     0.0000   218.0000 </r>
       <r>    -9.5280     0.0000   218.0000 </r>
       <r>    -9.3753     0.0000   218.0000 </r>
       <r>    -9.2226     0.0000   218.0000 </r>
       <r>    -9.0700     0.0000   218.0000 </r>
       <r>    -8.9173     0.0000   218.0000 </r>
       <r>    -8.7647     0.0000   218.0000 </r>
       <r>    -8.6120     0.0000   218.0000 </r>
       <r>    -8.4593     0.0000   218.0000 </r>
       <r>    -8.3067     0.0000   218.0000 </r>
       <r>    -8.1540     0.0000   218.0000 </r>
       <r>    -8.0014     0.0000   218.0000 </r>
       <r>    -7.8487     0.0000   218.0000 </r>
       <r>    -7.6960     0.0000   218.0000 </r>
       <r>    -7.5434     0.0000   218.0000 </r>
       <r>    -7.3907     0.0000   218.0000 </r>
       <r>    -7.2381     0.0000   218.0000 </r>
       <r>    -7.0854     0.0000   218.0000 </r>
       <r>    -6.9328     0.0000   218.0000 </r>
       <r>    -6.7801     0.0000   218.0000 </r>
       <r>    -6.6274     0.0000   218.0000 </r>
       <r>    -6.4748     0.0000   218.0000 </r>
       <r>    -6.3221     0.0000   218.0000 </r>
       <r>    -6.1695     0.0000   218.0000 </r>
       <r>    -6.0168     0.0000   218.0000 </r>
       <r>    -5.8641     0.0000   218.0000 </r>
       <r>    -5.7115     0.0000   218.0000 </r>
       <r>    -5.5588     0.0000   218.0000 </r>
       <r>    -5.4062     0.0000   218.0000 </r>
       <r>    -5.2535     0.0000   218.0000 </r>
       <r>    -5.1008     0.0000   218.0000 </r>
       <r>    -4.9482     0.0000   218.0000 </r>
       <r>    -4.7955     0.0002   218.0000 </r>
       <r>    -4.6429     4.1879   218.6394 </r>
       <r>    -4.4902     8.5614   219.9463 </r>
       <r>    -4.3375     6.4587   220.9323 </r>
       <r>    -4.1849    13.0516   222.9247 </r>
       <r>    -4.0322     0.4930   223.0000 </r>
       <r>    -3.8796     0.0000   223.0000 </r>
       <r>    -3.7269     0.0000   223.0000 </r>
       <r>    -3.5743     0.0000   223.0000 </r>
       <r>    -3.4216     0.0000   223.0000 </r>
       <r>    -3.2689     0.0000   223.0000 </r>
       <r>    -3.1163     0.0000   223.0000 </r>
       <r>    -2.9636     0.0000   223.0000 </r>
       <r>    -2.8110     0.0000   223.0000 </r>
       <r>    -2.6583     0.0000   223.0000 </r>
       <r>    -2.5056     0.0023   223.0004 </r>
       <r>    -2.3530     7.3631   224.1244 </r>
       <r>    -2.2003    14.4400   226.3288 </r>
       <r>    -2.0477    33.2992   231.4122 </r>
       <r>    -1.8950    24.7167   235.1854 </r>
       <r>    -1.7423    35.5054   240.6057 </r>
       <r>    -1.5897    38.8239   246.5325 </r>
       <r>    -1.4370    47.4411   253.7748 </r>
       <r>    -1.2844    49.5454   261.3383 </r>
       <r>    -1.1317    74.0514   272.6430 </r>
       <r>    -0.9790    78.9026   284.6882 </r>
       <r>    -0.8264    74.5305   296.0659 </r>
       <r>    -0.6737    88.7932   309.6210 </r>
       <r>    -0.5211    97.8477   324.5583 </r>
       <r>    -0.3684    92.4769   338.6758 </r>
       <r>    -0.2158    73.3110   349.8674 </r>
       <r>    -0.0631    49.8104   357.4714 </r>
       <r>     0.0896    51.6895   365.3622 </r>
       <r>     0.2422    53.9673   373.6008 </r>
       <r>     0.3949    46.3668   380.6791 </r>
       <r>     0.5475    54.5631   389.0087 </r>
       <r>     0.7002    57.5457   397.7936 </r>
       <r>     0.8529    48.2649   405.1616 </r>
       <r>     1.0055    54.8152   413.5297 </r>
       <r>     1.1582    60.0887   422.7028 </r>
       <r>     1.3108    83.7512   435.4881 </r>
       <r>     1.4635    84.4389   448.3785 </r>
       <r>     1.6162    83.9682   461.1970 </r>
       <r>     1.7688    77.4561   473.0214 </r>
       <r>     1.9215    63.5508   482.7230 </r>
       <r>     2.0741    34.1277   487.9329 </r>
       <r>     2.2268    16.5994   490.4669 </r>
       <r>     2.3794    15.3694   492.8132 </r>
       <r>     2.5321     1.2235   493.0000 </r>
       <r>     2.6848     0.0000   493.0000 </r>
       <r>     2.8374     0.0000   493.0000 </r>
       <r>     2.9901     0.0000   493.0000 </r>
       <r>     3.1427     0.0000   493.0000 </r>
       <r>     3.2954     0.0000   493.0000 </r>
       <r>     3.4481     0.0000   493.0000 </r>
       <r>     3.6007     0.0000   493.0000 </r>
       <r>     3.7534     0.0000   493.0000 </r>
       <r>     3.9060     0.0000   493.0000 </r>
       <r>     4.0587     0.0000   493.0000 </r>
       <r>     4.2114     0.0000   493.0000 </r>
       <r>     4.3640     0.0160   493.0024 </r>
       <r>     4.5167    18.9338   495.8929 </r>
       <r>     4.6693    45.5659   502.8489 </r>
       <r>     4.8220    47.3744   510.0810 </r>
       <r>     4.9747    36.5011   515.6532 </r>
       <r>     5.1273    53.3261   523.7939 </r>
       <r>     5.2800    66.5405   533.9519 </r>
       <r>     5.4326    56.7269   542.6118 </r>
       <r>     5.5853    66.0377   552.6931 </r>
       <r>     5.7379    74.0753   564.0013 </r>
       <r>     5.8906    63.9538   573.7645 </r>
       <r>     6.0433    79.3601   585.8795 </r>
       <r>     6.1959    84.3387   598.7546 </r>
       <r>     6.3486    57.3773   607.5137 </r>
       <r>     6.5012    17.9027   610.2468 </r>
       <r>     6.6539     9.8529   611.7509 </r>
       <r>     6.8066    20.3950   614.8644 </r>
       <r>     6.9592    18.4423   617.6798 </r>
       <r>     7.1119    17.7385   620.3877 </r>
       <r>     7.2645    21.6583   623.6940 </r>
       <r>     7.4172    15.7906   626.1046 </r>
       <r>     7.5699    13.6253   628.1846 </r>
       <r>     7.7225    17.0822   630.7924 </r>
       <r>     7.8752    26.5960   634.8525 </r>
       <r>     8.0278    20.1572   637.9297 </r>
       <r>     8.1805    27.7166   642.1609 </r>
       <r>     8.3332    21.2374   645.4030 </r>
       <r>     8.4858    23.6701   649.0164 </r>
       <r>     8.6385    23.2149   652.5604 </r>
       <r>     8.7911    24.5556   656.3090 </r>
       <r>     8.9438    35.7825   661.7715 </r>
       <r>     9.0964    34.5813   667.0507 </r>
       <r>     9.2491    38.0242   672.8554 </r>
       <r>     9.4018    37.2508   678.5421 </r>
       <r>     9.5544    46.8057   685.6874 </r>
       <r>     9.7071    45.7052   692.6647 </r>
       <r>     9.8597    57.8019   701.4887 </r>
       <r>    10.0124    57.8013   710.3126 </r>
       <r>    10.1651    62.2660   719.8180 </r>
       <r>    10.3177    62.9426   729.4268 </r>
       <r>    10.4704    59.3568   738.4881 </r>
       <r>    10.6230    57.2967   747.2350 </r>
       <r>    10.7757    54.3304   755.5290 </r>
       <r>    10.9284    55.7841   764.0450 </r>
       <r>    11.0810    25.8868   767.9968 </r>
       <r>    11.2337     0.0207   768.0000 </r>
       <r>    11.3863     0.0000   768.0000 </r>
       <r>    11.5390     0.0000   768.0000 </r>
       <r>    11.6917     0.0000   768.0000 </r>
       <r>    11.8443     0.0000   768.0000 </r>
       <r>    11.9970     0.0000   768.0000 </r>
       <r>    12.1496     0.0000   768.0000 </r>
       <r>    12.3023     0.0000   768.0000 </r>
       <r>    12.4549     0.0000   768.0000 </r>
       <r>    12.6076     0.0000   768.0000 </r>
       <r>    12.7603     0.0000   768.0000 </r>
       <r>    12.9129     0.0000   768.0000 </r>
       <r>    13.0656     0.0000   768.0000 </r>
      </set>
     </set>
    </array>
   </total>
  </dos>
 </calculation>
 <structure name="finalpos" >
  <crystal>
   <varray name="basis" >
    <v>      11.25535104       0.00047751       0.00000000 </v>
    <v>       0.00053786      11.27597456       0.00000000 </v>
    <v>       0.00000000       0.00000000      15.79935907 </v>
   </varray>
   <i name="volume">   2005.17647382 </i>
   <varray name="rec_basis" >
    <v>       0.08884663      -0.00000424       0.00000000 </v>
    <v>      -0.00000376       0.08868413       0.00000000 </v>
    <v>       0.00000000       0.00000000       0.06329371 </v>
   </varray>
  </crystal>
  <varray name="positions" >
   <v>       0.99113834       0.25032590       0.11849376 </v>
   <v>       0.99574302       0.24914255       0.62498862 </v>
   <v>       0.99838467       0.74926661       0.12042648 </v>
   <v>       0.00490140       0.74803513       0.62531713 </v>
   <v>       0.50694502       0.24959156       0.12093030 </v>
   <v>       0.50881688       0.24931127       0.62349988 </v>
   <v>       0.49740107       0.75003532       0.11959654 </v>
   <v>       0.49568640       0.75001527       0.62841925 </v>
   <v>       0.99574302       0.24914255       0.37501138 </v>
   <v>       0.99113834       0.25032590       0.88150624 </v>
   <v>       0.00490140       0.74803513       0.37468287 </v>
   <v>       0.99838467       0.74926661       0.87957352 </v>
   <v>       0.50881688       0.24931127       0.37650012 </v>
   <v>       0.50694502       0.24959156       0.87906970 </v>
   <v>       0.49568640       0.75001527       0.37158075 </v>
   <v>       0.49740107       0.75003532       0.88040346 </v>
   <v>       0.24832148       0.98927913       0.11661897 </v>
   <v>       0.24955275       0.99019922       0.62158649 </v>
   <v>       0.24906926       0.51179654       0.12064898 </v>
   <v>       0.24725041       0.51365443       0.62406430 </v>
   <v>       0.75085822       0.00227404       0.11996509 </v>
   <v>       0.75712164       0.01391300       0.62607972 </v>
   <v>       0.74823673       0.49826905       0.11954426 </v>
   <v>       0.75244283       0.49051754       0.63138382 </v>
   <v>       0.24955275       0.99019922       0.37841351 </v>
   <v>       0.24832148       0.98927913       0.88338103 </v>
   <v>       0.24725041       0.51365443       0.37593570 </v>
   <v>       0.24906926       0.51179654       0.87935102 </v>
   <v>       0.75712164       0.01391300       0.37392028 </v>
   <v>       0.75085822       0.00227404       0.88003491 </v>
   <v>       0.75244283       0.49051754       0.36861618 </v>
   <v>       0.74823673       0.49826905       0.88045574 </v>
   <v>       0.99841724       0.99871994      -0.00000000 </v>
   <v>       0.99882294       0.50083982      -0.00000000 </v>
   <v>       0.24965264       0.75597694       0.24765852 </v>
   <v>       0.50069857       0.99980890      -0.00000000 </v>
   <v>       0.24965593       0.24037831       0.50000000 </v>
   <v>       0.99738368       0.50335578       0.74928808 </v>
   <v>       0.49763309       0.00433006       0.50000000 </v>
   <v>       0.75066705       0.25650978       0.50000000 </v>
   <v>       0.00360159       0.00375642       0.50000000 </v>
   <v>       0.24893885       0.24419557      -0.00000000 </v>
   <v>       0.24965264       0.75597694       0.75234148 </v>
   <v>       0.75060389       0.24899175       0.24675258 </v>
   <v>       0.74991635       0.74500213       0.24904924 </v>
   <v>       0.74991635       0.74500213       0.75095076 </v>
   <v>       0.75060389       0.24899175       0.75324742 </v>
   <v>       0.49961167       0.50020179      -0.00000000 </v>
   <v>       0.99738368       0.50335578       0.25071192 </v>
   <v>       0.25059541       0.74940795       0.50000000 </v>
   <v>       0.50179144       0.50243500       0.25140501 </v>
   <v>       0.50179144       0.50243500       0.74859499 </v>
   <v>       0.48364665       0.48830062       0.50000000 </v>
   <v>       0.51666203       0.98822939       0.25175283 </v>
   <v>       0.01034172       0.48502566       0.50000000 </v>
   <v>       0.99000268       0.98477202       0.25006990 </v>
   <v>       0.25446535       0.27848500       0.74843509 </v>
   <v>       0.24907632       0.74935809      -0.00000000 </v>
   <v>       0.74921301       0.24988784      -0.00000000 </v>
   <v>       0.74536631       0.77716610       0.50000000 </v>
   <v>       0.25446535       0.27848500       0.25156491 </v>
   <v>       0.99000268       0.98477202       0.74993010 </v>
   <v>       0.51666203       0.98822939       0.74824717 </v>
   <v>       0.74829825       0.75143461      -0.00000000 </v>
   <v>       0.00437709       0.00474780       0.12784789 </v>
   <v>       0.00797040       0.01405474       0.62646851 </v>
   <v>       0.00446267       0.49665756       0.12593296 </v>
   <v>       0.99152551       0.51350674       0.62173924 </v>
   <v>       0.49529694       0.00574614       0.12925495 </v>
   <v>       0.48492618       0.01495348       0.62638670 </v>
   <v>       0.49497975       0.49800723       0.12628985 </v>
   <v>       0.51015917       0.51076519       0.62133515 </v>
   <v>       0.00797040       0.01405474       0.37353149 </v>
   <v>       0.00437709       0.00474780       0.87215211 </v>
   <v>       0.99152551       0.51350674       0.37826076 </v>
   <v>       0.00446267       0.49665756       0.87406704 </v>
   <v>       0.48492618       0.01495348       0.37361330 </v>
   <v>       0.49529694       0.00574614       0.87074505 </v>
   <v>       0.51015917       0.51076519       0.37866485 </v>
   <v>       0.49497975       0.49800723       0.87371015 </v>
   <v>       0.24393603       0.21797271       0.36384060 </v>
   <v>       0.24607075       0.22206035       0.86146298 </v>
   <v>       0.24809416       0.74989420       0.37535474 </v>
   <v>       0.24999258       0.74897288       0.87374877 </v>
   <v>       0.75053400       0.24965892       0.37550202 </v>
   <v>       0.75093861       0.25150589       0.87441290 </v>
   <v>       0.75536314       0.71193745       0.39131015 </v>
   <v>       0.74811571       0.75882089       0.87145732 </v>
   <v>       0.24607075       0.22206035       0.13853702 </v>
   <v>       0.24393603       0.21797271       0.63615940 </v>
   <v>       0.24999258       0.74897288       0.12625123 </v>
   <v>       0.24809416       0.74989420       0.62464526 </v>
   <v>       0.75093861       0.25150589       0.12558710 </v>
   <v>       0.75053400       0.24965892       0.62449798 </v>
   <v>       0.74811571       0.75882089       0.12854268 </v>
   <v>       0.75536314       0.71193745       0.60868985 </v>
   <v>       0.61209376       0.13916361       0.25115946 </v>
   <v>       0.87085739       0.11727613       0.24968573 </v>
   <v>       0.13772201       0.39482338       0.25700892 </v>
   <v>       0.40009605       0.35620042       0.25600728 </v>
   <v>       0.64116779       0.39095948       0.24905208 </v>
   <v>       0.89084366       0.36243828       0.25291446 </v>
   <v>       0.10736981       0.64469874       0.25018294 </v>
   <v>       0.35974614       0.61074075       0.25257218 </v>
   <v>       0.60851279       0.64132482       0.24755114 </v>
   <v>       0.85710313       0.60702431       0.24444146 </v>
   <v>       0.14456788       0.89984836       0.25069268 </v>
   <v>       0.38736996       0.86642508       0.25118911 </v>
   <v>       0.64665140       0.88397209       0.26725587 </v>
   <v>       0.88894469       0.85144060       0.25995525 </v>
   <v>       0.14502246       0.10585617       0.50000000 </v>
   <v>       0.39155884       0.14655704       0.50000000 </v>
   <v>       0.63955175       0.11150423       0.50000000 </v>
   <v>       0.89149256       0.14393839       0.50000000 </v>
   <v>       0.11120854       0.34929723       0.50000000 </v>
   <v>       0.34885155       0.38557745       0.50000000 </v>
   <v>       0.61306591       0.36681199       0.50000000 </v>
   <v>       0.85799173       0.39667244       0.50000000 </v>
   <v>       0.13079767       0.61648501       0.50000000 </v>
   <v>       0.38847297       0.64003273       0.50000000 </v>
   <v>       0.11027245       0.86292712       0.50000000 </v>
   <v>       0.35870090       0.89081459       0.50000000 </v>
   <v>       0.60051912       0.86094428       0.50000000 </v>
   <v>       0.86484730       0.89409162       0.50000000 </v>
   <v>       0.61209376       0.13916361       0.74884054 </v>
   <v>       0.87085739       0.11727613       0.75031427 </v>
   <v>       0.13772201       0.39482338       0.74299108 </v>
   <v>       0.40009605       0.35620042       0.74399272 </v>
   <v>       0.64116779       0.39095948       0.75094792 </v>
   <v>       0.89084366       0.36243828       0.74708554 </v>
   <v>       0.10736981       0.64469874       0.74981706 </v>
   <v>       0.35974614       0.61074075       0.74742782 </v>
   <v>       0.60851279       0.64132482       0.75244886 </v>
   <v>       0.85710313       0.60702431       0.75555854 </v>
   <v>       0.14456788       0.89984836       0.74930732 </v>
   <v>       0.38736996       0.86642508       0.74881089 </v>
   <v>       0.64665140       0.88397209       0.73274413 </v>
   <v>       0.88894469       0.85144060       0.74004475 </v>
   <v>       0.13540478       0.11416935      -0.00000000 </v>
   <v>       0.38330370       0.13496817      -0.00000000 </v>
   <v>       0.63284351       0.11508646      -0.00000000 </v>
   <v>       0.88495311       0.13275374      -0.00000000 </v>
   <v>       0.11838671       0.35937301      -0.00000000 </v>
   <v>       0.36073954       0.37819819      -0.00000000 </v>
   <v>       0.61359108       0.36734169      -0.00000000 </v>
   <v>       0.86947749       0.38320070      -0.00000000 </v>
   <v>       0.13226109       0.61386591      -0.00000000 </v>
   <v>       0.38200002       0.62996483      -0.00000000 </v>
   <v>       0.63093168       0.61600534      -0.00000000 </v>
   <v>       0.88319298       0.63231920      -0.00000000 </v>
   <v>       0.11532180       0.86682506      -0.00000000 </v>
   <v>       0.36764091       0.88401603      -0.00000000 </v>
   <v>       0.61376946       0.86853804      -0.00000000 </v>
   <v>       0.86696915       0.88559694      -0.00000000 </v>
  </varray>
 </structure>
</modeling>
