       N       E                     dE             d eps       ncg     rms          rms(c)
DAV:   1    -0.115344424888E+04   -0.11534E+04   -0.40296E-02 12672   0.457E-01    0.224E-02
RMM:   2    -0.115344424869E+04    0.19844E-06   -0.14002E-05  6652   0.656E-03    0.363E-02
RMM:   3    -0.115344424882E+04   -0.13722E-06   -0.40749E-06  5661   0.408E-03    0.358E-03
RMM:   4    -0.115344424883E+04   -0.70431E-08   -0.96328E-07  2919   0.198E-03    0.246E-03
RMM:   5    -0.115344424883E+04   -0.20373E-09   -0.59634E-07  2557   0.197E-03    0.287E-03
RMM:   6    -0.115344424877E+04    0.60230E-07   -0.15979E-07  1736   0.167E-03    0.964E-04
RMM:   7    -0.115344424875E+04    0.22919E-07   -0.87681E-08  1477   0.166E-03    0.501E-04
RMM:   8    -0.115344424874E+04    0.92259E-08   -0.29772E-08  1250   0.163E-03
   1 F= -.11534442E+04 E0= -.11534442E+04  d E =-.115344E+04  mag=    20.0000
       N       E                     dE             d eps       ncg     rms          rms(c)
DAV:   1    -0.115344432872E+04   -0.79970E-04   -0.13011E-01 12472   0.421E-01    0.138E-01
RMM:   2    -0.115344455415E+04   -0.22543E-03   -0.41284E-03 12300   0.850E-02    0.119E-01
RMM:   3    -0.115344452704E+04    0.27111E-04   -0.16376E-04  7610   0.250E-02    0.775E-02
RMM:   4    -0.115344449107E+04    0.35966E-04   -0.75593E-05  7129   0.121E-02    0.436E-02
RMM:   5    -0.115344447606E+04    0.15017E-04   -0.60552E-05  7059   0.975E-03    0.514E-02
RMM:   6    -0.115344447650E+04   -0.44223E-06   -0.21387E-05  6233   0.757E-03    0.172E-02
RMM:   7    -0.115344447681E+04   -0.31163E-06   -0.71998E-06  5530   0.343E-03    0.108E-02
RMM:   8    -0.115344447708E+04   -0.27438E-06   -0.36215E-06  5179   0.344E-03
   2 F= -.11534445E+04 E0= -.11534445E+04  d E =-.228346E-03  mag=    20.0000
       N       E                     dE             d eps       ncg     rms          rms(c)
DAV:   1    -0.115344453887E+04   -0.62060E-04   -0.13846E-02 12528   0.137E-01    0.472E-02
RMM:   2    -0.115344455948E+04   -0.20613E-04   -0.41421E-04 10055   0.274E-02    0.427E-02
RMM:   3    -0.115344455844E+04    0.10475E-05   -0.24038E-05  6443   0.924E-03    0.248E-02
RMM:   4    -0.115344455450E+04    0.39340E-05   -0.82464E-06  5776   0.406E-03    0.142E-02
RMM:   5    -0.115344455252E+04    0.19850E-05   -0.63019E-06  5437   0.335E-03    0.464E-03
RMM:   6    -0.115344455253E+04   -0.17113E-07   -0.73790E-07  2680   0.203E-03    0.253E-03
RMM:   7    -0.115344455251E+04    0.20606E-07   -0.30885E-08  1308   0.155E-03    0.149E-03
RMM:   8    -0.115344455250E+04    0.13330E-07   -0.81889E-09  1016   0.156E-03
   3 F= -.11534446E+04 E0= -.11534446E+04  d E =-.303762E-03  mag=    20.0000
       N       E                     dE             d eps       ncg     rms          rms(c)
DAV:   1    -0.115344452007E+04    0.32447E-04   -0.12997E-01 12480   0.424E-01    0.117E-01
RMM:   2    -0.115344485341E+04   -0.33334E-03   -0.32959E-03 12313   0.747E-02    0.763E-02
RMM:   3    -0.115344485923E+04   -0.58235E-05   -0.13208E-04  7162   0.246E-02    0.446E-02
RMM:   4    -0.115344484849E+04    0.10744E-04   -0.54373E-05  6949   0.954E-03    0.256E-02
RMM:   5    -0.115344484808E+04    0.40786E-06   -0.16838E-05  6707   0.657E-03    0.297E-02
RMM:   6    -0.115344484845E+04   -0.37339E-06   -0.79035E-06  5985   0.384E-03    0.638E-03
RMM:   7    -0.115344484866E+04   -0.21351E-06   -0.28583E-06  4429   0.318E-03    0.703E-03
RMM:   8    -0.115344484875E+04   -0.81738E-07   -0.16408E-06  3269   0.226E-03
   4 F= -.11534448E+04 E0= -.11534448E+04  d E =-.296247E-03  mag=    20.0000
