<?xml version="1.0" encoding="ISO-8859-1"?>
<modeling>
 <generator>
  <i name="program" type="string">vasp </i>
  <i name="version" type="string">5.4.1  </i>
  <i name="subversion" type="string">05Feb16 (build Jan 25 2017 20:16:33) complex                          parallel </i>
  <i name="platform" type="string">BWXE6 </i>
  <i name="date" type="string">2019 07 09 </i>
  <i name="time" type="string">00:50:44 </i>
 </generator>
 <incar>
  <i type="string" name="SYSTEM"> STF</i>
  <i type="string" name="PREC">normal</i>
  <i type="string" name="ALGO"> Fast</i>
  <i type="int" name="ISPIN">     2</i>
  <i type="int" name="NELM">    40</i>
  <i type="int" name="NELMIN">     8</i>
  <i type="int" name="IBRION">     2</i>
  <i name="EDIFF">      0.00010000</i>
  <i name="EDIFFG">     -0.03000000</i>
  <i type="int" name="NSW">    30</i>
  <i type="int" name="ISIF">     3</i>
  <i name="ENCUT">    520.00000000</i>
  <i type="int" name="NBANDS">   768</i>
  <v name="MAGMOM">      0.60000000      0.60000000      0.60000000      0.60000000      0.60000000      0.60000000      0.60000000      0.60000000      0.60000000      0.60000000      0.60000000      0.60000000      0.60000000      0.60000000      0.60000000      0.60000000      0.60000000      0.60000000      0.60000000      0.60000000
      0.60000000      0.60000000      0.60000000      0.60000000      0.60000000      0.60000000      0.60000000      0.60000000      0.60000000      0.60000000      0.60000000      0.60000000      0.60000000      0.60000000      0.60000000      0.60000000      0.60000000      0.60000000      0.60000000      0.60000000
      0.60000000      0.60000000      0.60000000      0.60000000      0.60000000      0.60000000      0.60000000      0.60000000      0.60000000      0.60000000      0.60000000      0.60000000      0.60000000      0.60000000      0.60000000      0.60000000      0.60000000      0.60000000      0.60000000      0.60000000
      5.00000000      5.00000000      5.00000000      5.00000000      0.60000000      0.60000000      0.60000000      0.60000000      0.60000000      0.60000000      0.60000000      0.60000000      0.60000000      0.60000000      0.60000000      0.60000000      0.60000000      0.60000000      0.60000000      0.60000000
      0.60000000      0.60000000      0.60000000      0.60000000      0.60000000      0.60000000      0.60000000      0.60000000      0.60000000      0.60000000      0.60000000      0.60000000      0.60000000      0.60000000      0.60000000      0.60000000      0.60000000      0.60000000      0.60000000      0.60000000
      0.60000000      0.60000000      0.60000000      0.60000000      0.60000000      0.60000000      0.60000000      0.60000000      0.60000000      0.60000000      0.60000000      0.60000000      0.60000000      0.60000000      0.60000000      0.60000000      0.60000000      0.60000000      0.60000000      0.60000000
      0.60000000      0.60000000      0.60000000      0.60000000      0.60000000      0.60000000      0.60000000      0.60000000      0.60000000      0.60000000      0.60000000      0.60000000      0.60000000      0.60000000      0.60000000      0.60000000      0.60000000      0.60000000      0.60000000      0.60000000
      0.60000000      0.60000000      0.60000000      0.60000000      0.60000000      0.60000000      0.60000000      0.60000000      0.60000000      0.60000000      0.60000000      0.60000000      0.60000000      0.60000000      0.60000000      0.60000000      0.60000000      0.60000000</v>
  <i type="string" name="LREAL"> Auto</i>
  <i type="int" name="ISMEAR">     0</i>
  <i name="SIGMA">      0.05000000</i>
  <i type="int" name="LMAXMIX">     4</i>
  <v type="int" name="KPOINT_BSE">    -1     0     0     0</v>
  <i type="int" name="NELM">    40</i>
  <i type="logical" name="LDAU"> T  </i>
  <v type="int" name="LDAUTYPE">     2</v>
  <v type="int" name="LDAUL">     0     2     2     0</v>
  <v name="LDAUU">      0.00000000      3.00000000      5.00000000      0.00000000</v>
  <v name="LDAUJ">      0.00000000      0.00000000      0.00000000      0.00000000</v>
  <i type="int" name="LDAUPRINT">     1</i>
 </incar>
 <kpoints>
  <generation param="Monkhorst-Pack">
   <v type="int" name="divisions">       2        2        2 </v>
   <v name="usershift">      0.00000000       0.00000000       0.00000000 </v>
   <v name="genvec1">      0.50000000      -0.00000000      -0.00000000 </v>
   <v name="genvec2">      0.00000000       0.50000000       0.00000000 </v>
   <v name="genvec3">      0.00000000       0.00000000       0.50000000 </v>
   <v name="shift">      0.50000000       0.50000000       0.50000000 </v>
  </generation>
  <varray name="kpointlist" >
   <v>       0.25000000       0.25000000       0.25000000 </v>
   <v>      -0.25000000       0.25000000       0.25000000 </v>
   <v>       0.25000000      -0.25000000       0.25000000 </v>
   <v>      -0.25000000      -0.25000000       0.25000000 </v>
  </varray>
  <varray name="weights" >
   <v>       0.25000000 </v>
   <v>       0.25000000 </v>
   <v>       0.25000000 </v>
   <v>       0.25000000 </v>
  </varray>
 </kpoints>
 <parameters>
  <separator name="general" >
   <i type="string" name="SYSTEM">STF</i>
   <i type="logical" name="LCOMPAT"> F  </i>
  </separator>
  <separator name="electronic" >
   <i type="string" name="PREC">normal</i>
   <i name="ENMAX">    520.00000000</i>
   <i name="ENAUG">    605.39200000</i>
   <i name="EDIFF">      0.00010000</i>
   <i type="int" name="IALGO">    68</i>
   <i type="int" name="IWAVPR">    11</i>
   <i type="int" name="NBANDS">   768</i>
   <i name="NELECT">   1028.00000000</i>
   <i type="int" name="TURBO">     0</i>
   <i type="int" name="IRESTART">     0</i>
   <i type="int" name="NREBOOT">     0</i>
   <i type="int" name="NMIN">     0</i>
   <i name="EREF">      0.00000000</i>
   <separator name="electronic smearing" >
    <i type="int" name="ISMEAR">     0</i>
    <i name="SIGMA">      0.05000000</i>
    <i name="KSPACING">      0.50000000</i>
    <i type="logical" name="KGAMMA"> T  </i>
   </separator>
   <separator name="electronic projectors" >
    <i type="logical" name="LREAL"> T  </i>
    <v name="ROPT">     -0.00050000     -0.00050000     -0.00050000     -0.00050000</v>
    <i type="int" name="LMAXPAW">  -100</i>
    <i type="int" name="LMAXMIX">     4</i>
    <i type="logical" name="NLSPLINE"> F  </i>
   </separator>
   <separator name="electronic startup" >
    <i type="int" name="ISTART">     1</i>
    <i type="int" name="ICHARG">     0</i>
    <i type="int" name="INIWAV">     1</i>
   </separator>
   <separator name="electronic spin" >
    <i type="int" name="ISPIN">     2</i>
    <i type="logical" name="LNONCOLLINEAR"> F  </i>
    <v name="MAGMOM">      0.60000000      0.60000000      0.60000000      0.60000000      0.60000000      0.60000000      0.60000000      0.60000000      0.60000000      0.60000000      0.60000000      0.60000000      0.60000000      0.60000000      0.60000000      0.60000000      0.60000000      0.60000000      0.60000000      0.60000000
      0.60000000      0.60000000      0.60000000      0.60000000      0.60000000      0.60000000      0.60000000      0.60000000      0.60000000      0.60000000      0.60000000      0.60000000      0.60000000      0.60000000      0.60000000      0.60000000      0.60000000      0.60000000      0.60000000      0.60000000
      0.60000000      0.60000000      0.60000000      0.60000000      0.60000000      0.60000000      0.60000000      0.60000000      0.60000000      0.60000000      0.60000000      0.60000000      0.60000000      0.60000000      0.60000000      0.60000000      0.60000000      0.60000000      0.60000000      0.60000000
      5.00000000      5.00000000      5.00000000      5.00000000      0.60000000      0.60000000      0.60000000      0.60000000      0.60000000      0.60000000      0.60000000      0.60000000      0.60000000      0.60000000      0.60000000      0.60000000      0.60000000      0.60000000      0.60000000      0.60000000
      0.60000000      0.60000000      0.60000000      0.60000000      0.60000000      0.60000000      0.60000000      0.60000000      0.60000000      0.60000000      0.60000000      0.60000000      0.60000000      0.60000000      0.60000000      0.60000000      0.60000000      0.60000000      0.60000000      0.60000000
      0.60000000      0.60000000      0.60000000      0.60000000      0.60000000      0.60000000      0.60000000      0.60000000      0.60000000      0.60000000      0.60000000      0.60000000      0.60000000      0.60000000      0.60000000      0.60000000      0.60000000      0.60000000      0.60000000      0.60000000
      0.60000000      0.60000000      0.60000000      0.60000000      0.60000000      0.60000000      0.60000000      0.60000000      0.60000000      0.60000000      0.60000000      0.60000000      0.60000000      0.60000000      0.60000000      0.60000000      0.60000000      0.60000000      0.60000000      0.60000000
      0.60000000      0.60000000      0.60000000      0.60000000      0.60000000      0.60000000      0.60000000      0.60000000      0.60000000      0.60000000      0.60000000      0.60000000      0.60000000      0.60000000      0.60000000      0.60000000      0.60000000      0.60000000</v>
    <i name="NUPDOWN">     -1.00000000</i>
    <i type="logical" name="LSORBIT"> F  </i>
    <v name="SAXIS">      0.00000000      0.00000000      1.00000000</v>
    <i type="logical" name="LSPIRAL"> F  </i>
    <v name="QSPIRAL">      0.00000000      0.00000000      0.00000000</v>
    <i type="logical" name="LZEROZ"> F  </i>
   </separator>
   <separator name="electronic exchange-correlation" >
    <i type="logical" name="LASPH"> F  </i>
    <i type="logical" name="LMETAGGA"> F  </i>
   </separator>
   <separator name="electronic convergence" >
    <i type="int" name="NELM">    40</i>
    <i type="int" name="NELMDL">     0</i>
    <i type="int" name="NELMIN">     8</i>
    <i name="ENINI">    520.00000000</i>
    <separator name="electronic convergence detail" >
     <i type="logical" name="LDIAG"> T  </i>
     <i type="logical" name="LSUBROT"> F  </i>
     <i name="WEIMIN">      0.00100000</i>
     <i name="EBREAK">      0.00000003</i>
     <i name="DEPER">      0.30000000</i>
     <i type="int" name="NRMM">     4</i>
     <i name="TIME">      0.40000000</i>
    </separator>
   </separator>
   <separator name="electronic mixer" >
    <i name="AMIX">      0.40000000</i>
    <i name="BMIX">      1.00000000</i>
    <i name="AMIN">      0.10000000</i>
    <i name="AMIX_MAG">      1.60000000</i>
    <i name="BMIX_MAG">      1.00000000</i>
    <separator name="electronic mixer details" >
     <i type="int" name="IMIX">     4</i>
     <i type="logical" name="MIXFIRST"> F  </i>
     <i type="int" name="MAXMIX">   -45</i>
     <i name="WC">    100.00000000</i>
     <i type="int" name="INIMIX">     1</i>
     <i type="int" name="MIXPRE">     1</i>
     <i type="int" name="MREMOVE">     5</i>
    </separator>
   </separator>
   <separator name="electronic dipolcorrection" >
    <i type="logical" name="LDIPOL"> F  </i>
    <i type="logical" name="LMONO"> F  </i>
    <i type="int" name="IDIPOL">     0</i>
    <i name="EPSILON">      1.00000000</i>
    <v name="DIPOL">   -100.00000000   -100.00000000   -100.00000000</v>
    <i name="EFIELD">      0.00000000</i>
   </separator>
  </separator>
  <separator name="grids" >
   <i type="int" name="NGX">    64</i>
   <i type="int" name="NGY">    64</i>
   <i type="int" name="NGZ">    90</i>
   <i type="int" name="NGXF">   128</i>
   <i type="int" name="NGYF">   128</i>
   <i type="int" name="NGZF">   180</i>
   <i type="logical" name="ADDGRID"> F  </i>
  </separator>
  <separator name="ionic" >
   <i type="int" name="NSW">    30</i>
   <i type="int" name="IBRION">     2</i>
   <i type="int" name="ISIF">     3</i>
   <i name="PSTRESS">      0.00000000</i>
   <i name="EDIFFG">     -0.03000000</i>
   <i type="int" name="NFREE">     1</i>
   <i name="POTIM">      0.50000000</i>
   <i name="SMASS">     -3.00000000</i>
   <i name="SCALEE">      1.00000000</i>
  </separator>
  <separator name="ionic md" >
   <i name="TEBEG">      0.00010000</i>
   <i name="TEEND">      0.00010000</i>
   <i type="int" name="NBLOCK">     1</i>
   <i type="int" name="KBLOCK">    30</i>
   <i type="int" name="NPACO">   256</i>
   <i name="APACO">     16.00000000</i>
  </separator>
  <separator name="symmetry" >
   <i type="int" name="ISYM">     2</i>
   <i name="SYMPREC">      0.00001000</i>
  </separator>
  <separator name="dos" >
   <i type="logical" name="LORBIT"> F  </i>
   <v name="RWIGS">     -1.00000000     -1.00000000     -1.00000000     -1.00000000</v>
   <i type="int" name="NEDOS">   301</i>
   <i name="EMIN">     10.00000000</i>
   <i name="EMAX">    -10.00000000</i>
   <i name="EFERMI">      0.00000000</i>
  </separator>
  <separator name="writing" >
   <i type="int" name="NWRITE">     2</i>
   <i type="logical" name="LWAVE"> T  </i>
   <i type="logical" name="LCHARG"> T  </i>
   <i type="logical" name="LPARD"> F  </i>
   <i type="logical" name="LVTOT"> F  </i>
   <i type="logical" name="LVHAR"> F  </i>
   <i type="logical" name="LELF"> F  </i>
   <i type="logical" name="LOPTICS"> F  </i>
   <v name="STM">      0.00000000      0.00000000      0.00000000      0.00000000      0.00000000      0.00000000      0.00000000</v>
  </separator>
  <separator name="performance" >
   <i type="int" name="NPAR">     2</i>
   <i type="int" name="NSIM">     4</i>
   <i type="int" name="NBLK">    -1</i>
   <i type="logical" name="LPLANE"> T  </i>
   <i type="logical" name="LSCALAPACK"> T  </i>
   <i type="logical" name="LSCAAWARE"> F  </i>
   <i type="logical" name="LSCALU"> F  </i>
   <i type="logical" name="LASYNC"> F  </i>
   <i type="logical" name="LORBITALREAL"> F  </i>
  </separator>
  <separator name="miscellaneous" >
   <i type="int" name="IDIOT">     3</i>
   <i type="logical" name="LMUSIC"> F  </i>
   <v name="POMASS">     87.62000000     47.88000000     55.84700000     16.00000000</v>
   <v name="DARWINR">      0.00000000      0.00000000      0.00000000      0.00000000</v>
   <v name="DARWINV">      1.00000000      1.00000000      1.00000000      1.00000000</v>
   <i type="logical" name="LCORR"> T  </i>
  </separator>
  <i type="logical" name="GGA_COMPAT"> T  </i>
  <i type="logical" name="LBERRY"> F  </i>
  <i type="int" name="ICORELEVEL">     0</i>
  <i type="logical" name="LDAU"> T  </i>
  <v type="int" name="LDAUTYPE">     2</v>
  <v type="int" name="LDAUL">     0</v>
  <v name="LDAUU">      0.00000000</v>
  <v name="LDAUJ">      0.00000000</v>
  <i type="int" name="LDAUPRINT">     1</i>
  <i type="int" name="I_CONSTRAINED_M">     0</i>
  <separator name="electronic exchange-correlation" >
   <i type="string" name="GGA">--</i>
   <i type="int" name="VOSKOWN">     0</i>
   <i type="logical" name="LHFCALC"> F  </i>
   <i type="string" name="PRECFOCK"></i>
   <i type="logical" name="LSYMGRAD"> F  </i>
   <i type="logical" name="LHFONE"> F  </i>
   <i type="logical" name="LRHFCALC"> F  </i>
   <i type="logical" name="LTHOMAS"> F  </i>
   <i type="logical" name="LMODELHF"> F  </i>
   <i name="ENCUT4O">     -1.00000000</i>
   <i type="int" name="EXXOEP">     0</i>
   <i type="int" name="FOURORBIT">     0</i>
   <i name="AEXX">      0.00000000</i>
   <i name="HFALPHA">      0.00000000</i>
   <i name="MCALPHA">      0.00000000</i>
   <i name="ALDAX">      1.00000000</i>
   <i name="AGGAX">      1.00000000</i>
   <i name="ALDAC">      1.00000000</i>
   <i name="AGGAC">      1.00000000</i>
   <i type="int" name="NKREDX">     1</i>
   <i type="int" name="NKREDY">     1</i>
   <i type="int" name="NKREDZ">     1</i>
   <i type="logical" name="SHIFTRED"> F  </i>
   <i type="logical" name="ODDONLY"> F  </i>
   <i type="logical" name="EVENONLY"> F  </i>
   <i type="int" name="LMAXFOCK">     0</i>
   <i type="int" name="NMAXFOCKAE">     0</i>
   <i type="logical" name="LFOCKAEDFT"> F  </i>
   <i name="HFSCREEN">      0.00000000</i>
   <i name="HFSCREENC">      0.00000000</i>
   <i type="int" name="NBANDSGWLOW">     0</i>
  </separator>
  <separator name="vdW DFT" >
   <i type="logical" name="LUSE_VDW"> F  </i>
   <i name="Zab_VDW">     -0.84910000</i>
   <i name="PARAM1">      0.12340000</i>
   <i name="PARAM2">      1.00000000</i>
   <i name="PARAM3">      0.00000000</i>
  </separator>
  <separator name="model GW" >
   <i type="int" name="MODEL_GW">     0</i>
   <i name="MODEL_EPS0">      7.61067422</i>
   <i name="MODEL_ALPHA">      1.00000000</i>
  </separator>
  <separator name="linear response parameters" >
   <i type="logical" name="LEPSILON"> F  </i>
   <i type="logical" name="LRPA"> F  </i>
   <i type="logical" name="LNABLA"> F  </i>
   <i type="logical" name="LVEL"> F  </i>
   <i type="int" name="KINTER">     0</i>
   <i name="CSHIFT">      0.10000000</i>
   <i name="OMEGAMAX">     -1.00000000</i>
   <i name="DEG_THRESHOLD">      0.00200000</i>
  </separator>
  <separator name="orbital magnetization" >
   <i type="logical" name="NUCIND"> F  </i>
   <v name="MAGPOS">      0.00000000      0.00000000      0.00000000</v>
   <i type="logical" name="LNICSALL"> T  </i>
   <i type="logical" name="ORBITALMAG"> F  </i>
   <i type="logical" name="LMAGBLOCH"> F  </i>
   <i type="logical" name="LCHIMAG"> F  </i>
   <i type="logical" name="LGAUGE"> T  </i>
   <i type="int" name="MAGATOM">     0</i>
   <v name="MAGDIPOL">      0.00000000      0.00000000      0.00000000</v>
   <v name="AVECCONST">      0.00000000      0.00000000      0.00000000</v>
  </separator>
  <separator name="response functions" >
   <i type="logical" name="LADDER"> F  </i>
   <i type="logical" name="LFXC"> F  </i>
   <i type="logical" name="LHARTREE"> T  </i>
   <i type="int" name="IBSE">     0</i>
   <v type="int" name="KPOINT">    -1     0     0     0</v>
   <i type="logical" name="LTCTE"> F  </i>
   <i type="logical" name="LTETE"> F  </i>
   <i type="logical" name="LTRIPLET"> F  </i>
   <i type="logical" name="LFXCEPS"> F  </i>
   <i type="logical" name="LFXHEG"> F  </i>
   <i type="int" name="NATURALO">     0</i>
   <i type="logical" name="L2ORDER"> F  </i>
   <i type="logical" name="LUSEW"> F  </i>
   <i name="ENCUTGW">     -2.00000000</i>
   <i name="ENCUTGWSOFT">     -2.00000000</i>
   <i name="ENCUTLF">     -1.00000000</i>
   <i type="int" name="LMAXMP2">    -1</i>
   <i name="SCISSOR">      0.00000000</i>
   <i type="int" name="NOMEGA">     0</i>
   <i type="int" name="NOMEGAR">     0</i>
   <i type="int" name="NBANDSGW">    -1</i>
   <i type="int" name="NBANDSO">    -1</i>
   <i type="int" name="NBANDSV">    -1</i>
   <i type="int" name="NELM">    40</i>
   <i type="int" name="NELMHF">     1</i>
   <i type="int" name="DIM">     3</i>
   <i type="int" name="ANTIRES">     0</i>
   <i name="OMEGAMAX">    -30.00000000</i>
   <i name="OMEGAMIN">    -30.00000000</i>
   <i name="OMEGATL">   -200.00000000</i>
   <i type="int" name="OMEGAGRID">     0</i>
   <i name="CSHIFT">     -0.10000000</i>
   <i type="logical" name="SELFENERGY"> F  </i>
   <i type="logical" name="LSPECTRAL"> F  </i>
   <i type="logical" name="LSPECTRALGW"> F  </i>
   <i type="logical" name="LSINGLES"> F  </i>
   <i type="logical" name="LFERMIGW"> F  </i>
   <i type="logical" name="ODDONLYGW"> F  </i>
   <i type="logical" name="EVENONLYGW"> F  </i>
   <i type="int" name="NKREDLFX">     1</i>
   <i type="int" name="NKREDLFY">     1</i>
   <i type="int" name="NKREDLFZ">     1</i>
   <i type="int" name="MAXMEM">  1800</i>
   <i type="int" name="TELESCOPE">     0</i>
   <i type="int" name="TAUPAR">     1</i>
   <i type="int" name="OMEGAPAR">    -1</i>
   <i name="LAMBDA">      1.00000000</i>
  </separator>
  <separator name="External order field" >
   <i name="OFIELD_KAPPA">      0.00000000</i>
   <v name="OFIELD_K">      0.00000000      0.00000000      0.00000000</v>
   <i name="OFIELD_Q6_NEAR">      0.00000000</i>
   <i name="OFIELD_Q6_FAR">      0.00000000</i>
   <i name="OFIELD_A">      0.00000000</i>
  </separator>
 </parameters>
 <atominfo>
  <atoms>     158 </atoms>
  <types>       4 </types>
  <array name="atoms" >
   <dimension dim="1">ion</dimension>
   <field type="string">element</field>
   <field type="int">atomtype</field>
   <set>
    <rc><c>Sr</c><c>   1</c></rc>
    <rc><c>Sr</c><c>   1</c></rc>
    <rc><c>Sr</c><c>   1</c></rc>
    <rc><c>Sr</c><c>   1</c></rc>
    <rc><c>Sr</c><c>   1</c></rc>
    <rc><c>Sr</c><c>   1</c></rc>
    <rc><c>Sr</c><c>   1</c></rc>
    <rc><c>Sr</c><c>   1</c></rc>
    <rc><c>Sr</c><c>   1</c></rc>
    <rc><c>Sr</c><c>   1</c></rc>
    <rc><c>Sr</c><c>   1</c></rc>
    <rc><c>Sr</c><c>   1</c></rc>
    <rc><c>Sr</c><c>   1</c></rc>
    <rc><c>Sr</c><c>   1</c></rc>
    <rc><c>Sr</c><c>   1</c></rc>
    <rc><c>Sr</c><c>   1</c></rc>
    <rc><c>Sr</c><c>   1</c></rc>
    <rc><c>Sr</c><c>   1</c></rc>
    <rc><c>Sr</c><c>   1</c></rc>
    <rc><c>Sr</c><c>   1</c></rc>
    <rc><c>Sr</c><c>   1</c></rc>
    <rc><c>Sr</c><c>   1</c></rc>
    <rc><c>Sr</c><c>   1</c></rc>
    <rc><c>Sr</c><c>   1</c></rc>
    <rc><c>Sr</c><c>   1</c></rc>
    <rc><c>Sr</c><c>   1</c></rc>
    <rc><c>Sr</c><c>   1</c></rc>
    <rc><c>Sr</c><c>   1</c></rc>
    <rc><c>Sr</c><c>   1</c></rc>
    <rc><c>Sr</c><c>   1</c></rc>
    <rc><c>Sr</c><c>   1</c></rc>
    <rc><c>Sr</c><c>   1</c></rc>
    <rc><c>Ti</c><c>   2</c></rc>
    <rc><c>Ti</c><c>   2</c></rc>
    <rc><c>Ti</c><c>   2</c></rc>
    <rc><c>Ti</c><c>   2</c></rc>
    <rc><c>Ti</c><c>   2</c></rc>
    <rc><c>Ti</c><c>   2</c></rc>
    <rc><c>Ti</c><c>   2</c></rc>
    <rc><c>Ti</c><c>   2</c></rc>
    <rc><c>Ti</c><c>   2</c></rc>
    <rc><c>Ti</c><c>   2</c></rc>
    <rc><c>Ti</c><c>   2</c></rc>
    <rc><c>Ti</c><c>   2</c></rc>
    <rc><c>Ti</c><c>   2</c></rc>
    <rc><c>Ti</c><c>   2</c></rc>
    <rc><c>Ti</c><c>   2</c></rc>
    <rc><c>Ti</c><c>   2</c></rc>
    <rc><c>Ti</c><c>   2</c></rc>
    <rc><c>Ti</c><c>   2</c></rc>
    <rc><c>Ti</c><c>   2</c></rc>
    <rc><c>Ti</c><c>   2</c></rc>
    <rc><c>Ti</c><c>   2</c></rc>
    <rc><c>Ti</c><c>   2</c></rc>
    <rc><c>Ti</c><c>   2</c></rc>
    <rc><c>Ti</c><c>   2</c></rc>
    <rc><c>Ti</c><c>   2</c></rc>
    <rc><c>Ti</c><c>   2</c></rc>
    <rc><c>Ti</c><c>   2</c></rc>
    <rc><c>Ti</c><c>   2</c></rc>
    <rc><c>Fe</c><c>   3</c></rc>
    <rc><c>Fe</c><c>   3</c></rc>
    <rc><c>Fe</c><c>   3</c></rc>
    <rc><c>Fe</c><c>   3</c></rc>
    <rc><c>O </c><c>   4</c></rc>
    <rc><c>O </c><c>   4</c></rc>
    <rc><c>O </c><c>   4</c></rc>
    <rc><c>O </c><c>   4</c></rc>
    <rc><c>O </c><c>   4</c></rc>
    <rc><c>O </c><c>   4</c></rc>
    <rc><c>O </c><c>   4</c></rc>
    <rc><c>O </c><c>   4</c></rc>
    <rc><c>O </c><c>   4</c></rc>
    <rc><c>O </c><c>   4</c></rc>
    <rc><c>O </c><c>   4</c></rc>
    <rc><c>O </c><c>   4</c></rc>
    <rc><c>O </c><c>   4</c></rc>
    <rc><c>O </c><c>   4</c></rc>
    <rc><c>O </c><c>   4</c></rc>
    <rc><c>O </c><c>   4</c></rc>
    <rc><c>O </c><c>   4</c></rc>
    <rc><c>O </c><c>   4</c></rc>
    <rc><c>O </c><c>   4</c></rc>
    <rc><c>O </c><c>   4</c></rc>
    <rc><c>O </c><c>   4</c></rc>
    <rc><c>O </c><c>   4</c></rc>
    <rc><c>O </c><c>   4</c></rc>
    <rc><c>O </c><c>   4</c></rc>
    <rc><c>O </c><c>   4</c></rc>
    <rc><c>O </c><c>   4</c></rc>
    <rc><c>O </c><c>   4</c></rc>
    <rc><c>O </c><c>   4</c></rc>
    <rc><c>O </c><c>   4</c></rc>
    <rc><c>O </c><c>   4</c></rc>
    <rc><c>O </c><c>   4</c></rc>
    <rc><c>O </c><c>   4</c></rc>
    <rc><c>O </c><c>   4</c></rc>
    <rc><c>O </c><c>   4</c></rc>
    <rc><c>O </c><c>   4</c></rc>
    <rc><c>O </c><c>   4</c></rc>
    <rc><c>O </c><c>   4</c></rc>
    <rc><c>O </c><c>   4</c></rc>
    <rc><c>O </c><c>   4</c></rc>
    <rc><c>O </c><c>   4</c></rc>
    <rc><c>O </c><c>   4</c></rc>
    <rc><c>O </c><c>   4</c></rc>
    <rc><c>O </c><c>   4</c></rc>
    <rc><c>O </c><c>   4</c></rc>
    <rc><c>O </c><c>   4</c></rc>
    <rc><c>O </c><c>   4</c></rc>
    <rc><c>O </c><c>   4</c></rc>
    <rc><c>O </c><c>   4</c></rc>
    <rc><c>O </c><c>   4</c></rc>
    <rc><c>O </c><c>   4</c></rc>
    <rc><c>O </c><c>   4</c></rc>
    <rc><c>O </c><c>   4</c></rc>
    <rc><c>O </c><c>   4</c></rc>
    <rc><c>O </c><c>   4</c></rc>
    <rc><c>O </c><c>   4</c></rc>
    <rc><c>O </c><c>   4</c></rc>
    <rc><c>O </c><c>   4</c></rc>
    <rc><c>O </c><c>   4</c></rc>
    <rc><c>O </c><c>   4</c></rc>
    <rc><c>O </c><c>   4</c></rc>
    <rc><c>O </c><c>   4</c></rc>
    <rc><c>O </c><c>   4</c></rc>
    <rc><c>O </c><c>   4</c></rc>
    <rc><c>O </c><c>   4</c></rc>
    <rc><c>O </c><c>   4</c></rc>
    <rc><c>O </c><c>   4</c></rc>
    <rc><c>O </c><c>   4</c></rc>
    <rc><c>O </c><c>   4</c></rc>
    <rc><c>O </c><c>   4</c></rc>
    <rc><c>O </c><c>   4</c></rc>
    <rc><c>O </c><c>   4</c></rc>
    <rc><c>O </c><c>   4</c></rc>
    <rc><c>O </c><c>   4</c></rc>
    <rc><c>O </c><c>   4</c></rc>
    <rc><c>O </c><c>   4</c></rc>
    <rc><c>O </c><c>   4</c></rc>
    <rc><c>O </c><c>   4</c></rc>
    <rc><c>O </c><c>   4</c></rc>
    <rc><c>O </c><c>   4</c></rc>
    <rc><c>O </c><c>   4</c></rc>
    <rc><c>O </c><c>   4</c></rc>
    <rc><c>O </c><c>   4</c></rc>
    <rc><c>O </c><c>   4</c></rc>
    <rc><c>O </c><c>   4</c></rc>
    <rc><c>O </c><c>   4</c></rc>
    <rc><c>O </c><c>   4</c></rc>
    <rc><c>O </c><c>   4</c></rc>
    <rc><c>O </c><c>   4</c></rc>
    <rc><c>O </c><c>   4</c></rc>
    <rc><c>O </c><c>   4</c></rc>
    <rc><c>O </c><c>   4</c></rc>
    <rc><c>O </c><c>   4</c></rc>
    <rc><c>O </c><c>   4</c></rc>
    <rc><c>O </c><c>   4</c></rc>
   </set>
  </array>
  <array name="atomtypes" >
   <dimension dim="1">type</dimension>
   <field type="int">atomspertype</field>
   <field type="string">element</field>
   <field>mass</field>
   <field>valence</field>
   <field type="string">pseudopotential</field>
   <set>
    <rc><c>  32</c><c>Sr</c><c>     87.62000000</c><c>     10.00000000</c><c>  PAW_PBE Sr_sv 07Sep2000               </c></rc>
    <rc><c>  28</c><c>Ti</c><c>     47.88000000</c><c>      4.00000000</c><c>  PAW_PBE Ti 08Apr2002                  </c></rc>
    <rc><c>   4</c><c>Fe</c><c>     55.84700000</c><c>      8.00000000</c><c>  PAW_PBE Fe 06Sep2000                  </c></rc>
    <rc><c>  94</c><c>O </c><c>     16.00000000</c><c>      6.00000000</c><c>  PAW_PBE O 08Apr2002                   </c></rc>
   </set>
  </array>
 </atominfo>
 <structure name="initialpos" >
  <crystal>
   <varray name="basis" >
    <v>      11.21807449      -0.00225440      -0.00039613 </v>
    <v>      -0.00224833      11.22038367      -0.00006413 </v>
    <v>      -0.00056428      -0.00009036      15.92219578 </v>
   </varray>
   <i name="volume">   2004.14421129 </i>
   <varray name="rec_basis" >
    <v>       0.08914186       0.00001786       0.00000316 </v>
    <v>       0.00001791       0.08912352       0.00000051 </v>
    <v>       0.00000222       0.00000036       0.06280541 </v>
   </varray>
  </crystal>
  <varray name="positions" >
   <v>       0.99805818       0.25992349       0.12659275 </v>
   <v>       0.00076961       0.24877058       0.62510236 </v>
   <v>       0.99785020       0.74131784       0.13271354 </v>
   <v>       0.00078245       0.74953051       0.62322498 </v>
   <v>       0.49934327       0.25203507       0.12713868 </v>
   <v>       0.50014173       0.25015947       0.62462593 </v>
   <v>       0.50164239       0.74974218       0.12650002 </v>
   <v>       0.50064583       0.74950796       0.62495938 </v>
   <v>       0.00077645       0.24874632       0.37408302 </v>
   <v>       0.99788384       0.26018286       0.87420857 </v>
   <v>       0.00074784       0.74981215       0.37585699 </v>
   <v>       0.99786273       0.74089958       0.86782410 </v>
   <v>       0.50029660       0.25219163       0.37378598 </v>
   <v>       0.49904942       0.25047395       0.87464524 </v>
   <v>       0.50045120       0.74793700       0.37305143 </v>
   <v>       0.50241677       0.75182629       0.87522442 </v>
   <v>       0.25361135       0.00033534       0.12821332 </v>
   <v>       0.25011753       0.99872486       0.62389052 </v>
   <v>       0.25079993       0.49935334       0.12592614 </v>
   <v>       0.25088059       0.50144080       0.62534388 </v>
   <v>       0.74341570       0.00083351       0.12802984 </v>
   <v>       0.75106980       0.99944598       0.62499943 </v>
   <v>       0.74606077       0.49833329       0.12810432 </v>
   <v>       0.74952284       0.50102352       0.62429334 </v>
   <v>       0.24997189       0.99864755       0.37527696 </v>
   <v>       0.25408560       0.00025235       0.87226099 </v>
   <v>       0.25293005       0.50149436       0.37271321 </v>
   <v>       0.24859174       0.49977398       0.87589607 </v>
   <v>       0.75109763       0.99948471       0.37413653 </v>
   <v>       0.74334309       0.00071205       0.87291450 </v>
   <v>       0.74771286       0.50132566       0.37407263 </v>
   <v>       0.74818127       0.49796676       0.87338364 </v>
   <v>       0.25207774       0.25196286       0.00014434 </v>
   <v>       0.00028008       0.00097164       0.49978605 </v>
   <v>       0.50039249       0.49684387       0.00147620 </v>
   <v>       0.99980600       0.49955096       0.49977516 </v>
   <v>       0.99978904       0.49943907       0.25146507 </v>
   <v>       0.74967899       0.25008839       0.75014247 </v>
   <v>       0.49987433       0.50043073       0.49862931 </v>
   <v>       0.50003512       0.00006704       0.49982542 </v>
   <v>       0.24927650       0.24950151       0.49985270 </v>
   <v>       0.24978329       0.75074366       0.75202132 </v>
   <v>       0.25092893       0.74954863       0.49980591 </v>
   <v>       0.49936858       0.99943632       0.00029721 </v>
   <v>       0.75050630       0.24926655       0.49993466 </v>
   <v>       0.74733669       0.25260307       0.00029594 </v>
   <v>       0.74948342       0.74949391       0.49982427 </v>
   <v>       0.25103221       0.25073695       0.24964672 </v>
   <v>       0.24950635       0.24964041       0.75046526 </v>
   <v>       0.25062007       0.74947047       0.24773907 </v>
   <v>       0.74862710       0.25140822       0.25005401 </v>
   <v>       0.74899142       0.74987039       0.24837293 </v>
   <v>       0.75010813       0.75081762       0.75130715 </v>
   <v>       0.99955892       0.99780441       0.24827455 </v>
   <v>       0.99948498       0.99769510       0.75137683 </v>
   <v>       0.99955766       0.50622447       0.00035326 </v>
   <v>       0.99982814       0.49936751       0.74859737 </v>
   <v>       0.49953514       0.00013569       0.25061333 </v>
   <v>       0.49959535       0.00014864       0.74949807 </v>
   <v>       0.49922846       0.49991919       0.75049298 </v>
   <v>       0.26439234       0.74052435       0.00004087 </v>
   <v>       0.00443569       0.02546155       0.99977156 </v>
   <v>       0.74166003       0.73674825       0.00008262 </v>
   <v>       0.49944005       0.50013715       0.24945796 </v>
   <v>       0.10898078       0.13565207       0.23976875 </v>
   <v>       0.10845366       0.13649266       0.76029621 </v>
   <v>       0.11122896       0.63777892       0.25199130 </v>
   <v>       0.11104541       0.63822800       0.74816074 </v>
   <v>       0.61165257       0.13797919       0.24914655 </v>
   <v>       0.61090899       0.13930784       0.75093157 </v>
   <v>       0.61372048       0.64087460       0.24606116 </v>
   <v>       0.61112090       0.64041371       0.75412541 </v>
   <v>       0.39011365       0.86007730       0.75148844 </v>
   <v>       0.38850640       0.35998170       0.74739844 </v>
   <v>       0.38930426       0.86153144       0.24859800 </v>
   <v>       0.88947184       0.36040427       0.25120922 </v>
   <v>       0.88974083       0.35998633       0.74885491 </v>
   <v>       0.88993189       0.86049703       0.25468949 </v>
   <v>       0.89049347       0.85970169       0.74517790 </v>
   <v>       0.36034065       0.11038977       0.25058522 </v>
   <v>       0.35987459       0.11014136       0.74938941 </v>
   <v>       0.35925818       0.61411864       0.24557678 </v>
   <v>       0.35953722       0.61140977       0.75453572 </v>
   <v>       0.86243719       0.10867904       0.24262997 </v>
   <v>       0.86166425       0.10823131       0.75743344 </v>
   <v>       0.86195317       0.61120430       0.24832689 </v>
   <v>       0.86080571       0.61075578       0.75170234 </v>
   <v>       0.13713097       0.38768890       0.24996429 </v>
   <v>       0.13838566       0.38833507       0.75014886 </v>
   <v>       0.13834627       0.88978790       0.25183433 </v>
   <v>       0.13932431       0.89045132       0.74818514 </v>
   <v>       0.64022439       0.38666261       0.25261646 </v>
   <v>       0.63983718       0.38926811       0.74702267 </v>
   <v>       0.63918972       0.89026130       0.25090416 </v>
   <v>       0.63970637       0.89055121       0.74919010 </v>
   <v>       0.35745673       0.39308443       0.99951258 </v>
   <v>       0.35855109       0.38929506       0.50068888 </v>
   <v>       0.50064325       0.49609863       0.12361426 </v>
   <v>       0.35965273       0.89086027       0.50041150 </v>
   <v>       0.13876960       0.61546812       0.99993316 </v>
   <v>       0.85867029       0.39025619       0.50002186 </v>
   <v>       0.85781830       0.39550980       0.00002681 </v>
   <v>       0.86071892       0.89055968       0.50039743 </v>
   <v>       0.15039276       0.10481567       0.99940696 </v>
   <v>       0.14046686       0.10852338       0.50041170 </v>
   <v>       0.39863356       0.64100558       0.99896080 </v>
   <v>       0.14008235       0.60978364       0.50008308 </v>
   <v>       0.64260860       0.11019645       0.99970822 </v>
   <v>       0.64066816       0.10904118       0.50044902 </v>
   <v>       0.64321729       0.60180741       0.99892856 </v>
   <v>       0.64062372       0.60912903       0.50057689 </v>
   <v>       0.89735222       0.65283906       0.99973966 </v>
   <v>       0.10860273       0.35913811       0.50034054 </v>
   <v>       0.61801253       0.86538510       0.99982173 </v>
   <v>       0.10952903       0.86079474       0.50035401 </v>
   <v>       0.60681848       0.35604772       0.99956266 </v>
   <v>       0.61007998       0.35892961       0.50072908 </v>
   <v>       0.88902208       0.14409585       0.99946634 </v>
   <v>       0.60949647       0.85968218       0.50008168 </v>
   <v>       0.39416730       0.14392663       0.00009385 </v>
   <v>       0.39017357       0.14110935       0.50008501 </v>
   <v>       0.23927221       0.75967720       0.12224117 </v>
   <v>       0.39023997       0.64088259       0.50053130 </v>
   <v>       0.10944908       0.36064043       0.99973223 </v>
   <v>       0.89149200       0.14052925       0.50042838 </v>
   <v>       0.35743302       0.89338591       0.99970842 </v>
   <v>       0.89041330       0.64032524       0.50037540 </v>
   <v>       0.99522486       0.96681610       0.11108113 </v>
   <v>       0.00025767       0.00553434       0.62714820 </v>
   <v>       0.00006089       0.49938252       0.12541624 </v>
   <v>       0.50044515       0.00067206       0.12528315 </v>
   <v>       0.49927869       0.00062467       0.62508207 </v>
   <v>       0.23918544       0.75916744       0.87724234 </v>
   <v>       0.49867330       0.50376912       0.62577904 </v>
   <v>       0.00016796       0.00556905       0.37362760 </v>
   <v>       0.99501950       0.96654581       0.88831563 </v>
   <v>       0.99891854       0.50015325       0.37546168 </v>
   <v>       0.99989666       0.49933670       0.87448283 </v>
   <v>       0.49934356       0.00061397       0.37517559 </v>
   <v>       0.50034488       0.00077079       0.87456572 </v>
   <v>       0.49885996       0.50256311       0.37635103 </v>
   <v>       0.50073274       0.49468359       0.87425065 </v>
   <v>       0.24395351       0.24582826       0.37469491 </v>
   <v>       0.25310652       0.25306873       0.87506945 </v>
   <v>       0.25110642       0.75040911       0.37502880 </v>
   <v>       0.38589987       0.35962097       0.25227000 </v>
   <v>       0.75291856       0.24439969       0.37499622 </v>
   <v>       0.99896203       0.50017446       0.62476024 </v>
   <v>       0.74891559       0.74835774       0.37536665 </v>
   <v>       0.75761792       0.76177185       0.87641519 </v>
   <v>       0.25219405       0.25278657       0.12432163 </v>
   <v>       0.24438844       0.24593429       0.62593964 </v>
   <v>       0.74922459       0.25497870       0.87471636 </v>
   <v>       0.25127214       0.74978947       0.62564783 </v>
   <v>       0.74951029       0.25406174       0.12476254 </v>
   <v>       0.75288479       0.24495481       0.62567907 </v>
   <v>       0.75784319       0.76162955       0.12300407 </v>
   <v>       0.74824356       0.74810139       0.62528421 </v>
  </varray>
 </structure>
 <calculation>
  <scstep>
   <time name="dav">  287.94  287.96</time>
   <time name="total">  291.62  291.84</time>
   <energy>
    <i name="alphaZ">   5636.45949584 </i>
    <i name="ewald"> -61206.06859867 </i>
    <i name="hartreedc"> -15296.17932252 </i>
    <i name="XCdc">   2852.70237578 </i>
    <i name="pawpsdc"> 112002.14997460 </i>
    <i name="pawaedc">-110750.68495880 </i>
    <i name="eentropy">     -0.00000000 </i>
    <i name="bandstr">  -7041.90684699 </i>
    <i name="atom">  72650.08363186 </i>
    <i name="e_fr_energy">  -1153.44424888 </i>
    <i name="e_wo_entrp">  -1153.44424888 </i>
    <i name="e_0_energy">  -1153.44424888 </i>
   </energy>
  </scstep>
  <scstep>
   <time name="diag">   33.25   33.26</time>
   <time name="diis">   30.43   30.44</time>
   <time name="orth">   18.83   18.83</time>
   <time name="total">   86.23   86.40</time>
   <energy>
    <i name="e_fr_energy">  -1153.44424869 </i>
    <i name="e_wo_entrp">  -1153.44424869 </i>
    <i name="e_0_energy">  -1153.44424869 </i>
   </energy>
  </scstep>
  <scstep>
   <time name="diag">   33.23   33.24</time>
   <time name="diis">   28.66   28.67</time>
   <time name="orth">   18.82   18.82</time>
   <time name="total">   84.44   84.55</time>
   <energy>
    <i name="e_fr_energy">  -1153.44424882 </i>
    <i name="e_wo_entrp">  -1153.44424882 </i>
    <i name="e_0_energy">  -1153.44424882 </i>
   </energy>
  </scstep>
  <scstep>
   <time name="diag">   33.26   33.26</time>
   <time name="diis">   24.40   24.41</time>
   <time name="orth">   18.80   18.80</time>
   <time name="total">   80.19   80.30</time>
   <energy>
    <i name="e_fr_energy">  -1153.44424883 </i>
    <i name="e_wo_entrp">  -1153.44424883 </i>
    <i name="e_0_energy">  -1153.44424883 </i>
   </energy>
  </scstep>
  <scstep>
   <time name="diag">   33.25   33.25</time>
   <time name="diis">   23.60   23.60</time>
   <time name="orth">   18.79   18.80</time>
   <time name="total">   79.37   79.47</time>
   <energy>
    <i name="e_fr_energy">  -1153.44424883 </i>
    <i name="e_wo_entrp">  -1153.44424883 </i>
    <i name="e_0_energy">  -1153.44424883 </i>
   </energy>
  </scstep>
  <scstep>
   <time name="diag">   33.25   33.28</time>
   <time name="diis">   22.23   22.23</time>
   <time name="orth">   18.84   18.84</time>
   <time name="total">   78.05   78.16</time>
   <energy>
    <i name="e_fr_energy">  -1153.44424877 </i>
    <i name="e_wo_entrp">  -1153.44424877 </i>
    <i name="e_0_energy">  -1153.44424877 </i>
   </energy>
  </scstep>
  <scstep>
   <time name="diag">   33.29   33.29</time>
   <time name="diis">   21.80   21.80</time>
   <time name="orth">   18.84   18.84</time>
   <time name="total">   77.62   77.73</time>
   <energy>
    <i name="e_fr_energy">  -1153.44424875 </i>
    <i name="e_wo_entrp">  -1153.44424875 </i>
    <i name="e_0_energy">  -1153.44424875 </i>
   </energy>
  </scstep>
  <scstep>
   <time name="diag">   33.23   33.25</time>
   <time name="diis">   21.39   21.38</time>
   <time name="orth">   18.85   18.85</time>
   <time name="total">   74.03   74.36</time>
   <energy>
    <i name="alphaZ">   5636.45949584 </i>
    <i name="ewald"> -61206.06859867 </i>
    <i name="hartreedc"> -15296.16485341 </i>
    <i name="XCdc">   2852.70046799 </i>
    <i name="pawpsdc"> 112000.63551757 </i>
    <i name="pawaedc">-110749.17521708 </i>
    <i name="eentropy">     -0.00000000 </i>
    <i name="bandstr">  -7041.91469284 </i>
    <i name="atom">  72650.08363186 </i>
    <i name="e_fr_energy">  -1153.44424874 </i>
    <i name="e_wo_entrp">  -1153.44424874 </i>
    <i name="e_0_energy">  -1153.44424874 </i>
   </energy>
  </scstep>
  <structure>
   <crystal>
    <varray name="basis" >
     <v>      11.21807449      -0.00225440      -0.00039613 </v>
     <v>      -0.00224833      11.22038367      -0.00006413 </v>
     <v>      -0.00056428      -0.00009036      15.92219578 </v>
    </varray>
    <i name="volume">   2004.14421129 </i>
    <varray name="rec_basis" >
     <v>       0.08914186       0.00001786       0.00000316 </v>
     <v>       0.00001791       0.08912352       0.00000051 </v>
     <v>       0.00000222       0.00000036       0.06280541 </v>
    </varray>
   </crystal>
   <varray name="positions" >
    <v>       0.99805818       0.25992349       0.12659275 </v>
    <v>       0.00076961       0.24877058       0.62510236 </v>
    <v>       0.99785020       0.74131784       0.13271354 </v>
    <v>       0.00078245       0.74953051       0.62322498 </v>
    <v>       0.49934327       0.25203507       0.12713868 </v>
    <v>       0.50014173       0.25015947       0.62462593 </v>
    <v>       0.50164239       0.74974218       0.12650002 </v>
    <v>       0.50064583       0.74950796       0.62495938 </v>
    <v>       0.00077645       0.24874632       0.37408302 </v>
    <v>       0.99788384       0.26018286       0.87420857 </v>
    <v>       0.00074784       0.74981215       0.37585699 </v>
    <v>       0.99786273       0.74089958       0.86782410 </v>
    <v>       0.50029660       0.25219163       0.37378598 </v>
    <v>       0.49904942       0.25047395       0.87464524 </v>
    <v>       0.50045120       0.74793700       0.37305143 </v>
    <v>       0.50241677       0.75182629       0.87522442 </v>
    <v>       0.25361135       0.00033534       0.12821332 </v>
    <v>       0.25011753       0.99872486       0.62389052 </v>
    <v>       0.25079993       0.49935334       0.12592614 </v>
    <v>       0.25088059       0.50144080       0.62534388 </v>
    <v>       0.74341570       0.00083351       0.12802984 </v>
    <v>       0.75106980       0.99944598       0.62499943 </v>
    <v>       0.74606077       0.49833329       0.12810432 </v>
    <v>       0.74952284       0.50102352       0.62429334 </v>
    <v>       0.24997189       0.99864755       0.37527696 </v>
    <v>       0.25408560       0.00025235       0.87226099 </v>
    <v>       0.25293005       0.50149436       0.37271321 </v>
    <v>       0.24859174       0.49977398       0.87589607 </v>
    <v>       0.75109763       0.99948471       0.37413653 </v>
    <v>       0.74334309       0.00071205       0.87291450 </v>
    <v>       0.74771286       0.50132566       0.37407263 </v>
    <v>       0.74818127       0.49796676       0.87338364 </v>
    <v>       0.25207774       0.25196286       0.00014434 </v>
    <v>       0.00028008       0.00097164       0.49978605 </v>
    <v>       0.50039249       0.49684387       0.00147620 </v>
    <v>       0.99980600       0.49955096       0.49977516 </v>
    <v>       0.99978904       0.49943907       0.25146507 </v>
    <v>       0.74967899       0.25008839       0.75014247 </v>
    <v>       0.49987433       0.50043073       0.49862931 </v>
    <v>       0.50003512       0.00006704       0.49982542 </v>
    <v>       0.24927650       0.24950151       0.49985270 </v>
    <v>       0.24978329       0.75074366       0.75202132 </v>
    <v>       0.25092893       0.74954863       0.49980591 </v>
    <v>       0.49936858       0.99943632       0.00029721 </v>
    <v>       0.75050630       0.24926655       0.49993466 </v>
    <v>       0.74733669       0.25260307       0.00029594 </v>
    <v>       0.74948342       0.74949391       0.49982427 </v>
    <v>       0.25103221       0.25073695       0.24964672 </v>
    <v>       0.24950635       0.24964041       0.75046526 </v>
    <v>       0.25062007       0.74947047       0.24773907 </v>
    <v>       0.74862710       0.25140822       0.25005401 </v>
    <v>       0.74899142       0.74987039       0.24837293 </v>
    <v>       0.75010813       0.75081762       0.75130715 </v>
    <v>       0.99955892       0.99780441       0.24827455 </v>
    <v>       0.99948498       0.99769510       0.75137683 </v>
    <v>       0.99955766       0.50622447       0.00035326 </v>
    <v>       0.99982814       0.49936751       0.74859737 </v>
    <v>       0.49953514       0.00013569       0.25061333 </v>
    <v>       0.49959535       0.00014864       0.74949807 </v>
    <v>       0.49922846       0.49991919       0.75049298 </v>
    <v>       0.26439234       0.74052435       0.00004087 </v>
    <v>       0.00443569       0.02546155       0.99977156 </v>
    <v>       0.74166003       0.73674825       0.00008262 </v>
    <v>       0.49944005       0.50013715       0.24945796 </v>
    <v>       0.10898078       0.13565207       0.23976875 </v>
    <v>       0.10845366       0.13649266       0.76029621 </v>
    <v>       0.11122896       0.63777892       0.25199130 </v>
    <v>       0.11104541       0.63822800       0.74816074 </v>
    <v>       0.61165257       0.13797919       0.24914655 </v>
    <v>       0.61090899       0.13930784       0.75093157 </v>
    <v>       0.61372048       0.64087460       0.24606116 </v>
    <v>       0.61112090       0.64041371       0.75412541 </v>
    <v>       0.39011365       0.86007730       0.75148844 </v>
    <v>       0.38850640       0.35998170       0.74739844 </v>
    <v>       0.38930426       0.86153144       0.24859800 </v>
    <v>       0.88947184       0.36040427       0.25120922 </v>
    <v>       0.88974083       0.35998633       0.74885491 </v>
    <v>       0.88993189       0.86049703       0.25468949 </v>
    <v>       0.89049347       0.85970169       0.74517790 </v>
    <v>       0.36034065       0.11038977       0.25058522 </v>
    <v>       0.35987459       0.11014136       0.74938941 </v>
    <v>       0.35925818       0.61411864       0.24557678 </v>
    <v>       0.35953722       0.61140977       0.75453572 </v>
    <v>       0.86243719       0.10867904       0.24262997 </v>
    <v>       0.86166425       0.10823131       0.75743344 </v>
    <v>       0.86195317       0.61120430       0.24832689 </v>
    <v>       0.86080571       0.61075578       0.75170234 </v>
    <v>       0.13713097       0.38768890       0.24996429 </v>
    <v>       0.13838566       0.38833507       0.75014886 </v>
    <v>       0.13834627       0.88978790       0.25183433 </v>
    <v>       0.13932431       0.89045132       0.74818514 </v>
    <v>       0.64022439       0.38666261       0.25261646 </v>
    <v>       0.63983718       0.38926811       0.74702267 </v>
    <v>       0.63918972       0.89026130       0.25090416 </v>
    <v>       0.63970637       0.89055121       0.74919010 </v>
    <v>       0.35745673       0.39308443       0.99951258 </v>
    <v>       0.35855109       0.38929506       0.50068888 </v>
    <v>       0.50064325       0.49609863       0.12361426 </v>
    <v>       0.35965273       0.89086027       0.50041150 </v>
    <v>       0.13876960       0.61546812       0.99993316 </v>
    <v>       0.85867029       0.39025619       0.50002186 </v>
    <v>       0.85781830       0.39550980       0.00002681 </v>
    <v>       0.86071892       0.89055968       0.50039743 </v>
    <v>       0.15039276       0.10481567       0.99940696 </v>
    <v>       0.14046686       0.10852338       0.50041170 </v>
    <v>       0.39863356       0.64100558       0.99896080 </v>
    <v>       0.14008235       0.60978364       0.50008308 </v>
    <v>       0.64260860       0.11019645       0.99970822 </v>
    <v>       0.64066816       0.10904118       0.50044902 </v>
    <v>       0.64321729       0.60180741       0.99892856 </v>
    <v>       0.64062372       0.60912903       0.50057689 </v>
    <v>       0.89735222       0.65283906       0.99973966 </v>
    <v>       0.10860273       0.35913811       0.50034054 </v>
    <v>       0.61801253       0.86538510       0.99982173 </v>
    <v>       0.10952903       0.86079474       0.50035401 </v>
    <v>       0.60681848       0.35604772       0.99956266 </v>
    <v>       0.61007998       0.35892961       0.50072908 </v>
    <v>       0.88902208       0.14409585       0.99946634 </v>
    <v>       0.60949647       0.85968218       0.50008168 </v>
    <v>       0.39416730       0.14392663       0.00009385 </v>
    <v>       0.39017357       0.14110935       0.50008501 </v>
    <v>       0.23927221       0.75967720       0.12224117 </v>
    <v>       0.39023997       0.64088259       0.50053130 </v>
    <v>       0.10944908       0.36064043       0.99973223 </v>
    <v>       0.89149200       0.14052925       0.50042838 </v>
    <v>       0.35743302       0.89338591       0.99970842 </v>
    <v>       0.89041330       0.64032524       0.50037540 </v>
    <v>       0.99522486       0.96681610       0.11108113 </v>
    <v>       0.00025767       0.00553434       0.62714820 </v>
    <v>       0.00006089       0.49938252       0.12541624 </v>
    <v>       0.50044515       0.00067206       0.12528315 </v>
    <v>       0.49927869       0.00062467       0.62508207 </v>
    <v>       0.23918544       0.75916744       0.87724234 </v>
    <v>       0.49867330       0.50376912       0.62577904 </v>
    <v>       0.00016796       0.00556905       0.37362760 </v>
    <v>       0.99501950       0.96654581       0.88831563 </v>
    <v>       0.99891854       0.50015325       0.37546168 </v>
    <v>       0.99989666       0.49933670       0.87448283 </v>
    <v>       0.49934356       0.00061397       0.37517559 </v>
    <v>       0.50034488       0.00077079       0.87456572 </v>
    <v>       0.49885996       0.50256311       0.37635103 </v>
    <v>       0.50073274       0.49468359       0.87425065 </v>
    <v>       0.24395351       0.24582826       0.37469491 </v>
    <v>       0.25310652       0.25306873       0.87506945 </v>
    <v>       0.25110642       0.75040911       0.37502880 </v>
    <v>       0.38589987       0.35962097       0.25227000 </v>
    <v>       0.75291856       0.24439969       0.37499622 </v>
    <v>       0.99896203       0.50017446       0.62476024 </v>
    <v>       0.74891559       0.74835774       0.37536665 </v>
    <v>       0.75761792       0.76177185       0.87641519 </v>
    <v>       0.25219405       0.25278657       0.12432163 </v>
    <v>       0.24438844       0.24593429       0.62593964 </v>
    <v>       0.74922459       0.25497870       0.87471636 </v>
    <v>       0.25127214       0.74978947       0.62564783 </v>
    <v>       0.74951029       0.25406174       0.12476254 </v>
    <v>       0.75288479       0.24495481       0.62567907 </v>
    <v>       0.75784319       0.76162955       0.12300407 </v>
    <v>       0.74824356       0.74810139       0.62528421 </v>
   </varray>
  </structure>
  <varray name="forces" >
   <v>       0.00182797       0.00838758      -0.00222488 </v>
   <v>      -0.00151974      -0.00118763      -0.00501248 </v>
   <v>       0.00232269       0.00306048      -0.00137880 </v>
   <v>       0.00060191       0.00359353       0.00932847 </v>
   <v>      -0.00650668      -0.00088401       0.00002657 </v>
   <v>       0.00159866      -0.00287216       0.00294745 </v>
   <v>      -0.00248713      -0.00113746      -0.00731834 </v>
   <v>      -0.00038947       0.00410619       0.00074064 </v>
   <v>      -0.00346314      -0.00181790       0.00453417 </v>
   <v>       0.00311110       0.00510603       0.00768968 </v>
   <v>      -0.00099976       0.00680890      -0.00739929 </v>
   <v>       0.00273963       0.00632158       0.00030349 </v>
   <v>       0.00077157       0.00120424      -0.00021299 </v>
   <v>      -0.00281761      -0.00506121       0.00385315 </v>
   <v>       0.00258902      -0.00154260       0.00090692 </v>
   <v>      -0.00100897       0.00243341       0.00604711 </v>
   <v>       0.00138548      -0.00515494      -0.00456719 </v>
   <v>      -0.00042217      -0.00530402       0.00415725 </v>
   <v>      -0.00416032      -0.00676636      -0.00119291 </v>
   <v>      -0.00170712       0.00351486       0.00250283 </v>
   <v>      -0.00380825       0.00823735      -0.00858192 </v>
   <v>      -0.00004340      -0.00804558      -0.00211745 </v>
   <v>      -0.00009992      -0.00053994       0.00302295 </v>
   <v>      -0.00048876       0.00548994      -0.00194223 </v>
   <v>      -0.00344958      -0.00582032      -0.00418189 </v>
   <v>       0.00372697      -0.00114828       0.00256286 </v>
   <v>      -0.00008723      -0.00211303      -0.00179092 </v>
   <v>      -0.00383035      -0.00087672       0.00580789 </v>
   <v>       0.00622678      -0.00829708       0.00413014 </v>
   <v>      -0.00309964       0.01120044       0.00625153 </v>
   <v>      -0.00166542       0.00418143       0.00058519 </v>
   <v>       0.00539797      -0.00158918      -0.00123872 </v>
   <v>      -0.02090686      -0.01185171       0.00890024 </v>
   <v>      -0.01589976      -0.00868915      -0.00156584 </v>
   <v>      -0.00422295       0.02039257       0.00584777 </v>
   <v>      -0.00174538      -0.00090463       0.00657951 </v>
   <v>      -0.00020416      -0.00004236      -0.00393380 </v>
   <v>      -0.01097753      -0.00427993       0.00002731 </v>
   <v>       0.00848685       0.00295356       0.00552257 </v>
   <v>       0.03707547      -0.02133255       0.02008078 </v>
   <v>      -0.00410002       0.00952856       0.00986332 </v>
   <v>      -0.00277108      -0.00282694       0.00114702 </v>
   <v>      -0.02098115       0.01465727       0.00455119 </v>
   <v>       0.00054727      -0.00585606       0.00293591 </v>
   <v>       0.00591144      -0.00980280      -0.00629354 </v>
   <v>       0.01827585      -0.01581068      -0.00337296 </v>
   <v>       0.00176573       0.00898097      -0.00349060 </v>
   <v>       0.00226879       0.01243058      -0.02304128 </v>
   <v>       0.00064158      -0.00860567       0.00255761 </v>
   <v>       0.00118826       0.00717810      -0.00857268 </v>
   <v>      -0.00741919       0.00460081       0.01113566 </v>
   <v>      -0.00725540       0.00275752       0.01364963 </v>
   <v>       0.00198641       0.00127828      -0.00512241 </v>
   <v>       0.00155589      -0.00984121      -0.00283254 </v>
   <v>       0.00215305      -0.00663990       0.00431506 </v>
   <v>       0.00949966       0.00271139       0.00340073 </v>
   <v>       0.00272486       0.03192010       0.00199866 </v>
   <v>       0.00113451      -0.00561547      -0.00817409 </v>
   <v>      -0.00000653      -0.00388378      -0.00736447 </v>
   <v>      -0.00229103       0.00938044      -0.01008863 </v>
   <v>       0.00824500      -0.00771912       0.00267531 </v>
   <v>       0.00251835      -0.00022548      -0.00345685 </v>
   <v>      -0.00957991      -0.01496127      -0.00184199 </v>
   <v>       0.00262757       0.00024822      -0.00016665 </v>
   <v>       0.00850707      -0.00275220       0.00761769 </v>
   <v>       0.01290604       0.00528028      -0.01031658 </v>
   <v>      -0.00855549      -0.00392822      -0.00822412 </v>
   <v>      -0.00509736      -0.00700062       0.00502462 </v>
   <v>       0.00694001       0.00181835       0.00871680 </v>
   <v>       0.01615635       0.00275896      -0.00157268 </v>
   <v>       0.00566052      -0.00426144       0.00318039 </v>
   <v>      -0.00020490      -0.00550913      -0.00097400 </v>
   <v>      -0.00213193       0.00344696      -0.00067918 </v>
   <v>       0.00078328       0.00076152      -0.01147163 </v>
   <v>      -0.00331075       0.00420748       0.00246576 </v>
   <v>      -0.01221310       0.00524107       0.00513396 </v>
   <v>      -0.01172187      -0.00149448      -0.00599512 </v>
   <v>      -0.00542125       0.00693282      -0.01069010 </v>
   <v>       0.00024516      -0.00154934       0.00917172 </v>
   <v>       0.00437805       0.00865759       0.00071944 </v>
   <v>      -0.00455099       0.00825004       0.00472802 </v>
   <v>       0.00603071       0.01037263       0.00255449 </v>
   <v>       0.00828836       0.00036898       0.00243405 </v>
   <v>       0.01075609       0.00553795       0.00451180 </v>
   <v>      -0.00079366       0.01105980      -0.00652986 </v>
   <v>       0.00548944       0.00568820       0.00702097 </v>
   <v>       0.00959646      -0.00139001      -0.00657499 </v>
   <v>      -0.00180480      -0.00496213       0.00649151 </v>
   <v>      -0.00246063      -0.01136463      -0.00398339 </v>
   <v>      -0.00939736      -0.00314029      -0.00268329 </v>
   <v>      -0.00647868      -0.00381610       0.00472812 </v>
   <v>      -0.00130602      -0.00767029       0.00552579 </v>
   <v>       0.00380040      -0.00144073      -0.00033612 </v>
   <v>      -0.00858151      -0.00404864      -0.00025138 </v>
   <v>      -0.00661342      -0.00350214      -0.00038119 </v>
   <v>      -0.00157891       0.00495026      -0.00188300 </v>
   <v>       0.00588783      -0.00196085       0.00040527 </v>
   <v>       0.00235070      -0.00502776      -0.01151629 </v>
   <v>      -0.00909399      -0.00397373      -0.00437511 </v>
   <v>      -0.00272276      -0.00074164      -0.00101448 </v>
   <v>      -0.00116230      -0.00158725       0.00059399 </v>
   <v>      -0.00467556       0.00243447       0.00532250 </v>
   <v>       0.00544041       0.00927164       0.00045756 </v>
   <v>       0.01365293      -0.00147697       0.00064830 </v>
   <v>       0.00676364      -0.00093286      -0.00430262 </v>
   <v>       0.00852709      -0.00404447      -0.00313454 </v>
   <v>       0.00601697       0.00414945      -0.00134699 </v>
   <v>       0.00192948       0.00419011       0.00347121 </v>
   <v>       0.00084167       0.00269409      -0.00233693 </v>
   <v>      -0.00259878      -0.00644036      -0.00219681 </v>
   <v>      -0.01018386      -0.00619297       0.00046168 </v>
   <v>       0.01146286       0.00735166      -0.00082659 </v>
   <v>       0.00617624      -0.00614719      -0.00110476 </v>
   <v>       0.00871769      -0.00115085      -0.00148649 </v>
   <v>      -0.00043668      -0.00505338      -0.00134355 </v>
   <v>      -0.00893996       0.00082085       0.00487224 </v>
   <v>      -0.00111226       0.00545911       0.00023353 </v>
   <v>      -0.02127529       0.01681270       0.00153145 </v>
   <v>      -0.00063982       0.00397631      -0.00143931 </v>
   <v>      -0.00311736      -0.00672194      -0.00078042 </v>
   <v>      -0.00236061       0.00527263      -0.00462853 </v>
   <v>      -0.00691574      -0.00048180       0.00121899 </v>
   <v>      -0.00303272      -0.00179183      -0.00335637 </v>
   <v>       0.00008544      -0.01084339      -0.00168231 </v>
   <v>       0.00348301      -0.00421393      -0.00349136 </v>
   <v>       0.00180386       0.00147425      -0.00193218 </v>
   <v>       0.00460131      -0.00432576      -0.00084402 </v>
   <v>       0.00320234      -0.00006764       0.00034585 </v>
   <v>       0.00353662      -0.00399376      -0.00053068 </v>
   <v>      -0.00399131      -0.00312854       0.00026418 </v>
   <v>      -0.00348115      -0.00405128       0.00220450 </v>
   <v>       0.00442088       0.00167050       0.00093664 </v>
   <v>      -0.00725230       0.00583013      -0.00269564 </v>
   <v>       0.00152975       0.00052678      -0.00255296 </v>
   <v>       0.00475533      -0.00571929      -0.00501042 </v>
   <v>      -0.00262066      -0.00664253      -0.00026178 </v>
   <v>      -0.00234058      -0.00134473       0.00058020 </v>
   <v>      -0.00069110      -0.00279654      -0.00280620 </v>
   <v>      -0.00180134       0.00021373       0.00105936 </v>
   <v>      -0.00490484      -0.00655363      -0.00113159 </v>
   <v>       0.00385759       0.00239122      -0.00307240 </v>
   <v>       0.00223967      -0.00649088      -0.00322489 </v>
   <v>       0.00750738      -0.00361646       0.00243059 </v>
   <v>       0.00040491       0.00561475      -0.01341769 </v>
   <v>       0.00001624       0.00312704       0.00699291 </v>
   <v>      -0.00960707       0.00096710       0.01070600 </v>
   <v>      -0.00678013       0.00399147      -0.00257350 </v>
   <v>      -0.00126295      -0.00555986       0.00580722 </v>
   <v>       0.00636997       0.00205677      -0.00924171 </v>
   <v>       0.00121816       0.00137995       0.00199554 </v>
   <v>       0.00158179       0.00079858       0.00491831 </v>
   <v>       0.00302740      -0.00706291       0.00145541 </v>
   <v>      -0.00426149       0.00397290      -0.00380304 </v>
   <v>       0.00037310       0.00134460      -0.00266069 </v>
   <v>      -0.00554639       0.00290745      -0.00654689 </v>
   <v>      -0.00154347       0.00328119       0.00730782 </v>
   <v>       0.00091275       0.00230766      -0.00028084 </v>
   <v>       0.00385143       0.00272822       0.00714263 </v>
  </varray>
  <varray name="stress" >
   <v>      -0.02981584       0.00827103       0.03267951 </v>
   <v>       0.00827140       0.09222520      -0.04597422 </v>
   <v>       0.03267917      -0.04597404      -0.06659305 </v>
  </varray>
  <energy>
   <i name="e_fr_energy">  -1153.44424874 </i>
   <i name="e_wo_entrp">  -1153.44424874 </i>
   <i name="e_0_energy">     -0.00000000 </i>
  </energy>
  <time name="totalsc"> 1005.01 1008.66</time>
 </calculation>
 <calculation>
  <scstep>
   <time name="dav">  285.03  285.05</time>
   <time name="total">  288.73  288.89</time>
   <energy>
    <i name="alphaZ">   5636.46851077 </i>
    <i name="ewald"> -61206.27477520 </i>
    <i name="hartreedc"> -15295.99479295 </i>
    <i name="XCdc">   2852.70094316 </i>
    <i name="pawpsdc"> 112000.63264880 </i>
    <i name="pawaedc">-110749.17239974 </i>
    <i name="eentropy">     -0.00000000 </i>
    <i name="bandstr">  -7041.88809542 </i>
    <i name="atom">  72650.08363186 </i>
    <i name="e_fr_energy">  -1153.44432872 </i>
    <i name="e_wo_entrp">  -1153.44432872 </i>
    <i name="e_0_energy">  -1153.44432872 </i>
   </energy>
  </scstep>
  <scstep>
   <time name="diag">   33.22   33.23</time>
   <time name="diis">   51.97   51.97</time>
   <time name="orth">   18.81   18.81</time>
   <time name="total">  107.71  107.76</time>
   <energy>
    <i name="e_fr_energy">  -1153.44455415 </i>
    <i name="e_wo_entrp">  -1153.44455415 </i>
    <i name="e_0_energy">  -1153.44455415 </i>
   </energy>
  </scstep>
  <scstep>
   <time name="diag">   33.23   33.23</time>
   <time name="diis">   33.81   33.83</time>
   <time name="orth">   18.79   18.79</time>
   <time name="total">   89.57   89.67</time>
   <energy>
    <i name="e_fr_energy">  -1153.44452704 </i>
    <i name="e_wo_entrp">  -1153.44452704 </i>
    <i name="e_0_energy">  -1153.44452704 </i>
   </energy>
  </scstep>
  <scstep>
   <time name="diag">   33.26   33.28</time>
   <time name="diis">   31.93   31.93</time>
   <time name="orth">   18.80   18.80</time>
   <time name="total">   87.71   87.82</time>
   <energy>
    <i name="e_fr_energy">  -1153.44449107 </i>
    <i name="e_wo_entrp">  -1153.44449107 </i>
    <i name="e_0_energy">  -1153.44449107 </i>
   </energy>
  </scstep>
  <scstep>
   <time name="diag">   33.25   33.24</time>
   <time name="diis">   31.65   31.66</time>
   <time name="orth">   18.80   18.80</time>
   <time name="total">   87.44   87.52</time>
   <energy>
    <i name="e_fr_energy">  -1153.44447606 </i>
    <i name="e_wo_entrp">  -1153.44447606 </i>
    <i name="e_0_energy">  -1153.44447606 </i>
   </energy>
  </scstep>
  <scstep>
   <time name="diag">   33.24   33.27</time>
   <time name="diis">   30.28   30.28</time>
   <time name="orth">   18.81   18.80</time>
   <time name="total">   86.05   86.16</time>
   <energy>
    <i name="e_fr_energy">  -1153.44447650 </i>
    <i name="e_wo_entrp">  -1153.44447650 </i>
    <i name="e_0_energy">  -1153.44447650 </i>
   </energy>
  </scstep>
  <scstep>
   <time name="diag">   33.19   33.21</time>
   <time name="diis">   29.09   29.11</time>
   <time name="orth">   18.79   18.80</time>
   <time name="total">   84.77   84.84</time>
   <energy>
    <i name="e_fr_energy">  -1153.44447681 </i>
    <i name="e_wo_entrp">  -1153.44447681 </i>
    <i name="e_0_energy">  -1153.44447681 </i>
   </energy>
  </scstep>
  <scstep>
   <time name="diag">   33.21   33.23</time>
   <time name="diis">   28.51   28.53</time>
   <time name="orth">   18.83   18.84</time>
   <time name="total">   81.13   81.20</time>
   <energy>
    <i name="alphaZ">   5636.46851077 </i>
    <i name="ewald"> -61206.27477520 </i>
    <i name="hartreedc"> -15295.95343128 </i>
    <i name="XCdc">   2852.70013030 </i>
    <i name="pawpsdc"> 111998.37775343 </i>
    <i name="pawaedc">-110746.92090323 </i>
    <i name="eentropy">     -0.00000000 </i>
    <i name="bandstr">  -7041.92539374 </i>
    <i name="atom">  72650.08363186 </i>
    <i name="e_fr_energy">  -1153.44447708 </i>
    <i name="e_wo_entrp">  -1153.44447708 </i>
    <i name="e_0_energy">  -1153.44447708 </i>
   </energy>
  </scstep>
  <structure>
   <crystal>
    <varray name="basis" >
     <v>      11.21794673      -0.00221903      -0.00025607 </v>
     <v>      -0.00221286      11.22077890      -0.00026118 </v>
     <v>      -0.00036554      -0.00036995      15.92179080 </v>
    </varray>
    <i name="volume">   2004.14100588 </i>
    <varray name="rec_basis" >
     <v>       0.08914288       0.00001758       0.00000205 </v>
     <v>       0.00001763       0.08912038       0.00000207 </v>
     <v>       0.00000143       0.00000146       0.06280701 </v>
    </varray>
   </crystal>
   <varray name="positions" >
    <v>       0.99806604       0.25995955       0.12658601 </v>
    <v>       0.00076308       0.24876547       0.62508717 </v>
    <v>       0.99786019       0.74133100       0.13270936 </v>
    <v>       0.00078504       0.74954596       0.62325325 </v>
    <v>       0.49931529       0.25203126       0.12713876 </v>
    <v>       0.50014861       0.25014713       0.62463486 </v>
    <v>       0.50163169       0.74973728       0.12647785 </v>
    <v>       0.50064416       0.74952562       0.62496163 </v>
    <v>       0.00076156       0.24873850       0.37409676 </v>
    <v>       0.99789723       0.26020481       0.87423187 </v>
    <v>       0.00074355       0.74984142       0.37583457 </v>
    <v>       0.99787452       0.74092676       0.86782502 </v>
    <v>       0.50029992       0.25219681       0.37378533 </v>
    <v>       0.49903730       0.25045219       0.87465691 </v>
    <v>       0.50046233       0.74793037       0.37305418 </v>
    <v>       0.50241244       0.75183675       0.87524274 </v>
    <v>       0.25361730       0.00031318       0.12819948 </v>
    <v>       0.25011571       0.99870205       0.62390311 </v>
    <v>       0.25078203       0.49932425       0.12592253 </v>
    <v>       0.25087325       0.50145591       0.62535147 </v>
    <v>       0.74339933       0.00086892       0.12800383 </v>
    <v>       0.75106960       0.99941139       0.62499302 </v>
    <v>       0.74606034       0.49833097       0.12811348 </v>
    <v>       0.74952074       0.50104713       0.62428745 </v>
    <v>       0.24995705       0.99862252       0.37526428 </v>
    <v>       0.25410163       0.00024741       0.87226876 </v>
    <v>       0.25292967       0.50148528       0.37270779 </v>
    <v>       0.24857526       0.49977021       0.87591366 </v>
    <v>       0.75112440       0.99944904       0.37414905 </v>
    <v>       0.74332977       0.00076021       0.87293344 </v>
    <v>       0.74770570       0.50134364       0.37407440 </v>
    <v>       0.74820448       0.49795993       0.87337989 </v>
    <v>       0.25198782       0.25191189       0.00017130 </v>
    <v>       0.00021169       0.00093426       0.49978130 </v>
    <v>       0.50037434       0.49693155       0.00149392 </v>
    <v>       0.99979849       0.49954707       0.49979509 </v>
    <v>       0.99978816       0.49943889       0.25145315 </v>
    <v>       0.74963178       0.25006998       0.75014255 </v>
    <v>       0.49991083       0.50044344       0.49864605 </v>
    <v>       0.50019454      -0.00002465       0.49988626 </v>
    <v>       0.24925888       0.24954248       0.49988258 </v>
    <v>       0.24977137       0.75073151       0.75202479 </v>
    <v>       0.25083871       0.74961163       0.49981969 </v>
    <v>       0.49937092       0.99941114       0.00030611 </v>
    <v>       0.75053171       0.24922441       0.49991559 </v>
    <v>       0.74741527       0.25253510       0.00028572 </v>
    <v>       0.74949102       0.74953253       0.49981369 </v>
    <v>       0.25104197       0.25079040       0.24957691 </v>
    <v>       0.24950910       0.24960341       0.75047300 </v>
    <v>       0.25062518       0.74950134       0.24771309 </v>
    <v>       0.74859520       0.25142799       0.25008774 </v>
    <v>       0.74896022       0.74988224       0.24841429 </v>
    <v>       0.75011667       0.75082312       0.75129163 </v>
    <v>       0.99956560       0.99776209       0.24826597 </v>
    <v>       0.99949423       0.99766655       0.75138990 </v>
    <v>       0.99959852       0.50623613       0.00036356 </v>
    <v>       0.99983988       0.49950476       0.74860343 </v>
    <v>       0.49954001       0.00011155       0.25058856 </v>
    <v>       0.49959532       0.00013194       0.74947575 </v>
    <v>       0.49921862       0.49995952       0.75046241 </v>
    <v>       0.26442780       0.74049117       0.00004898 </v>
    <v>       0.00444652       0.02546058       0.99976109 </v>
    <v>       0.74161882       0.73668391       0.00007704 </v>
    <v>       0.49945135       0.50013821       0.24945745 </v>
    <v>       0.10901736       0.13564025       0.23979184 </v>
    <v>       0.10850916       0.13651537       0.76026496 </v>
    <v>       0.11119216       0.63776202       0.25196639 </v>
    <v>       0.11102349       0.63819790       0.74817596 </v>
    <v>       0.61168241       0.13798702       0.24917297 </v>
    <v>       0.61097847       0.13931971       0.75092681 </v>
    <v>       0.61374482       0.64085628       0.24607080 </v>
    <v>       0.61112002       0.64039003       0.75412246 </v>
    <v>       0.39010448       0.86009212       0.75148638 </v>
    <v>       0.38850977       0.35998498       0.74736368 </v>
    <v>       0.38929002       0.86154952       0.24860547 </v>
    <v>       0.88941932       0.36042679       0.25122477 </v>
    <v>       0.88969042       0.35997989       0.74883674 </v>
    <v>       0.88990858       0.86052683       0.25465710 </v>
    <v>       0.89049452       0.85969503       0.74520569 </v>
    <v>       0.36035949       0.11042700       0.25058740 </v>
    <v>       0.35985502       0.11017683       0.74940373 </v>
    <v>       0.35928412       0.61416325       0.24558452 </v>
    <v>       0.35957286       0.61141136       0.75454309 </v>
    <v>       0.86248346       0.10870286       0.24264364 </v>
    <v>       0.86166084       0.10827886       0.75741366 </v>
    <v>       0.86197678       0.61122876       0.24834816 </v>
    <v>       0.86084697       0.61074981       0.75168242 </v>
    <v>       0.13712321       0.38766756       0.24998396 </v>
    <v>       0.13837506       0.38828621       0.75013679 </v>
    <v>       0.13830586       0.88977439       0.25182620 </v>
    <v>       0.13929645       0.89043490       0.74819947 </v>
    <v>       0.64021877       0.38662963       0.25263321 </v>
    <v>       0.63985353       0.38926192       0.74702165 </v>
    <v>       0.63915281       0.89024388       0.25090340 </v>
    <v>       0.63967793       0.89053615       0.74918895 </v>
    <v>       0.35744994       0.39310572       0.99950687 </v>
    <v>       0.35857641       0.38928664       0.50069011 </v>
    <v>       0.50065335       0.49607702       0.12357937 </v>
    <v>       0.35961362       0.89084318       0.50039824 </v>
    <v>       0.13875789       0.61546493       0.99993008 </v>
    <v>       0.85866529       0.39024937       0.50002366 </v>
    <v>       0.85779819       0.39552027       0.00004294 </v>
    <v>       0.86074233       0.89059955       0.50039881 </v>
    <v>       0.15045147       0.10480933       0.99940893 </v>
    <v>       0.14049594       0.10851938       0.50039866 </v>
    <v>       0.39867022       0.64098819       0.99895131 </v>
    <v>       0.14010822       0.60980148       0.50007900 </v>
    <v>       0.64261690       0.11021447       0.99971874 </v>
    <v>       0.64067178       0.10905277       0.50044194 </v>
    <v>       0.64320611       0.60177972       0.99892191 </v>
    <v>       0.64057992       0.60910239       0.50057828 </v>
    <v>       0.89740152       0.65287068       0.99973716 </v>
    <v>       0.10862928       0.35911169       0.50033719 </v>
    <v>       0.61805002       0.86538016       0.99981723 </v>
    <v>       0.10952715       0.86077301       0.50034994 </v>
    <v>       0.60678004       0.35605124       0.99957742 </v>
    <v>       0.61007520       0.35895308       0.50072979 </v>
    <v>       0.88893060       0.14416811       0.99947098 </v>
    <v>       0.60949372       0.85969928       0.50007732 </v>
    <v>       0.39415389       0.14389772       0.00009148 </v>
    <v>       0.39016343       0.14113202       0.50007099 </v>
    <v>       0.23924247       0.75967512       0.12224486 </v>
    <v>       0.39022693       0.64087489       0.50052113 </v>
    <v>       0.10944944       0.36059381       0.99972714 </v>
    <v>       0.89150697       0.14051114       0.50041780 </v>
    <v>       0.35744077       0.89339225       0.99970256 </v>
    <v>       0.89043308       0.64030665       0.50037285 </v>
    <v>       0.99523863       0.96681581       0.11108218 </v>
    <v>       0.00027287       0.00551717       0.62714659 </v>
    <v>       0.00004373       0.49936907       0.12541704 </v>
    <v>       0.50043017       0.00065464       0.12528983 </v>
    <v>       0.49929770       0.00063186       0.62508490 </v>
    <v>       0.23915426       0.75919250       0.87723417 </v>
    <v>       0.49867988       0.50377139       0.62577130 </v>
    <v>       0.00018841       0.00554446       0.37361242 </v>
    <v>       0.99500822       0.96651725       0.88831483 </v>
    <v>       0.99890848       0.50014747       0.37546344 </v>
    <v>       0.99989368       0.49932467       0.87447433 </v>
    <v>       0.49933581       0.00061489       0.37517880 </v>
    <v>       0.50032378       0.00074261       0.87456229 </v>
    <v>       0.49887655       0.50257339       0.37634172 </v>
    <v>       0.50074237       0.49465568       0.87424088 </v>
    <v>       0.24398580       0.24581271       0.37470227 </v>
    <v>       0.25310826       0.25309287       0.87502879 </v>
    <v>       0.25110649       0.75042256       0.37504998 </v>
    <v>       0.38585856       0.35962512       0.25230244 </v>
    <v>       0.75288941       0.24441684       0.37498842 </v>
    <v>       0.99895659       0.50015055       0.62477784 </v>
    <v>       0.74894298       0.74836658       0.37533864 </v>
    <v>       0.75762316       0.76177778       0.87642124 </v>
    <v>       0.25220086       0.25279000       0.12433654 </v>
    <v>       0.24440145       0.24590392       0.62594405 </v>
    <v>       0.74920626       0.25499578       0.87470484 </v>
    <v>       0.25127374       0.74979526       0.62563977 </v>
    <v>       0.74948644       0.25407424       0.12474271 </v>
    <v>       0.75287816       0.24496892       0.62570121 </v>
    <v>       0.75784712       0.76163948       0.12300322 </v>
    <v>       0.74826012       0.74811312       0.62530585 </v>
   </varray>
  </structure>
  <varray name="forces" >
   <v>      -0.00501531       0.00670772       0.00527943 </v>
   <v>      -0.00007268       0.00136975       0.00227771 </v>
   <v>      -0.00305085       0.00185819       0.00008233 </v>
   <v>       0.00206924       0.00280777       0.00574235 </v>
   <v>       0.00026886       0.00200170      -0.00502984 </v>
   <v>      -0.00193904       0.00210083       0.00001086 </v>
   <v>       0.00146446      -0.00115331      -0.00281140 </v>
   <v>      -0.00589000      -0.00348253       0.00027259 </v>
   <v>       0.00461998      -0.00117616       0.00134789 </v>
   <v>       0.00085914       0.01085408      -0.00557577 </v>
   <v>       0.00245691       0.00167885      -0.00968527 </v>
   <v>       0.00020535       0.00475217       0.00437677 </v>
   <v>      -0.00762939      -0.00236767       0.00463408 </v>
   <v>      -0.00266147       0.00354729       0.00546275 </v>
   <v>      -0.00709495      -0.00362564       0.00165383 </v>
   <v>       0.00198162       0.00173861       0.00187854 </v>
   <v>       0.00263213      -0.00314913       0.00114831 </v>
   <v>      -0.00100440       0.00157136      -0.00261726 </v>
   <v>      -0.00180035      -0.00643149       0.00083843 </v>
   <v>       0.00101824      -0.00284626      -0.00049247 </v>
   <v>      -0.00106802       0.00838695      -0.00406298 </v>
   <v>       0.00238185       0.00143941       0.00631926 </v>
   <v>      -0.00014150      -0.00475051       0.00124312 </v>
   <v>      -0.00023115      -0.00260907       0.00129611 </v>
   <v>       0.00353664       0.00466591       0.00018749 </v>
   <v>       0.00715484       0.00101023      -0.00085524 </v>
   <v>       0.00229230      -0.00320051       0.00283154 </v>
   <v>       0.00050571      -0.00874708       0.00208196 </v>
   <v>       0.00338906      -0.00253250      -0.00505944 </v>
   <v>      -0.00275544       0.01041381       0.00300919 </v>
   <v>      -0.00072879       0.00070167       0.00022802 </v>
   <v>       0.00265794      -0.00892763      -0.00236037 </v>
   <v>       0.02038543       0.01946602      -0.01096940 </v>
   <v>       0.02454856       0.01881294      -0.00303726 </v>
   <v>       0.00530064      -0.02365694      -0.01153311 </v>
   <v>       0.00688478      -0.00357410      -0.00435852 </v>
   <v>      -0.00389938       0.00083200       0.00887092 </v>
   <v>       0.00374978       0.01400722       0.00046182 </v>
   <v>      -0.01462089      -0.00349666       0.00199239 </v>
   <v>      -0.04657792       0.03108604      -0.03112685 </v>
   <v>       0.01547133      -0.01609115      -0.01205008 </v>
   <v>       0.00601922      -0.00177570      -0.00394313 </v>
   <v>       0.02069391      -0.01278445      -0.00981508 </v>
   <v>       0.00663315       0.00423966      -0.00386275 </v>
   <v>      -0.00629783       0.01335771       0.00632323 </v>
   <v>      -0.01699370       0.01771948      -0.00154429 </v>
   <v>       0.00819139      -0.01411415       0.00348622 </v>
   <v>      -0.00626273      -0.01072917       0.02961787 </v>
   <v>      -0.00230539       0.00686138      -0.00549521 </v>
   <v>      -0.00557970      -0.00389653       0.01488002 </v>
   <v>      -0.00073798      -0.00202163      -0.00215886 </v>
   <v>       0.00173403      -0.00108850      -0.01024190 </v>
   <v>      -0.00546553      -0.00072415       0.01153483 </v>
   <v>      -0.00019061       0.00779875      -0.00247129 </v>
   <v>      -0.00169206       0.01510040       0.00050259 </v>
   <v>      -0.01151854      -0.00110774       0.00056160 </v>
   <v>      -0.00530590      -0.03167913      -0.00417013 </v>
   <v>      -0.00372620       0.00801018       0.00912624 </v>
[...]
       <r>   -15.7675     0.0000    32.0000 </r>
       <r>   -15.6157     0.0000    32.0000 </r>
       <r>   -15.4640     0.0000    32.0000 </r>
       <r>   -15.3122     0.0000    32.0000 </r>
       <r>   -15.1605     0.3370    32.0511 </r>
       <r>   -15.0087    22.3786    35.4469 </r>
       <r>   -14.8570    55.7670    43.9091 </r>
       <r>   -14.7053    48.7786    51.3109 </r>
       <r>   -14.5535    29.2993    55.7569 </r>
       <r>   -14.4018    30.6363    60.4057 </r>
       <r>   -14.2500    34.8029    65.6867 </r>
       <r>   -14.0983   108.4966    82.1503 </r>
       <r>   -13.9466   148.7299   104.7189 </r>
       <r>   -13.7948   113.2509   121.9038 </r>
       <r>   -13.6431    23.7513   125.5079 </r>
       <r>   -13.4913     3.2430   126.0000 </r>
       <r>   -13.3396     0.0000   126.0000 </r>
       <r>   -13.1878     0.0000   126.0000 </r>
       <r>   -13.0361     0.0000   126.0000 </r>
       <r>   -12.8844     0.0000   126.0000 </r>
       <r>   -12.7326     0.0098   126.0015 </r>
       <r>   -12.5809    16.9740   128.5772 </r>
       <r>   -12.4291   109.3644   145.1724 </r>
       <r>   -12.2774   179.6219   172.4286 </r>
       <r>   -12.1256   143.5105   194.2052 </r>
       <r>   -11.9739   126.8359   213.4515 </r>
       <r>   -11.8222    51.4993   221.2662 </r>
       <r>   -11.6704     4.8360   222.0000 </r>
       <r>   -11.5187     0.0002   222.0000 </r>
       <r>   -11.3669     0.0000   222.0000 </r>
       <r>   -11.2152     0.0000   222.0000 </r>
       <r>   -11.0635     0.0000   222.0000 </r>
       <r>   -10.9117     0.0000   222.0000 </r>
       <r>   -10.7600     0.0000   222.0000 </r>
       <r>   -10.6082     0.0000   222.0000 </r>
       <r>   -10.4565     0.0000   222.0000 </r>
       <r>   -10.3047     0.0000   222.0000 </r>
       <r>   -10.1530     0.0000   222.0000 </r>
       <r>   -10.0013     0.0000   222.0000 </r>
       <r>    -9.8495     0.0000   222.0000 </r>
       <r>    -9.6978     0.0000   222.0000 </r>
       <r>    -9.5460     0.0000   222.0000 </r>
       <r>    -9.3943     0.0000   222.0000 </r>
       <r>    -9.2425     0.0000   222.0000 </r>
       <r>    -9.0908     0.0000   222.0000 </r>
       <r>    -8.9391     0.0000   222.0000 </r>
       <r>    -8.7873     0.0000   222.0000 </r>
       <r>    -8.6356     0.0000   222.0000 </r>
       <r>    -8.4838     0.0000   222.0000 </r>
       <r>    -8.3321     0.0000   222.0000 </r>
       <r>    -8.1803     0.0000   222.0000 </r>
       <r>    -8.0286     0.0000   222.0000 </r>
       <r>    -7.8769     0.0000   222.0000 </r>
       <r>    -7.7251     0.0000   222.0000 </r>
       <r>    -7.5734     0.0000   222.0000 </r>
       <r>    -7.4216     0.0000   222.0000 </r>
       <r>    -7.2699     0.0000   222.0000 </r>
       <r>    -7.1182     0.0000   222.0000 </r>
       <r>    -6.9664     0.0000   222.0000 </r>
       <r>    -6.8147     0.0000   222.0000 </r>
       <r>    -6.6629     0.0000   222.0000 </r>
       <r>    -6.5112     0.0000   222.0000 </r>
       <r>    -6.3594     0.0000   222.0000 </r>
       <r>    -6.2077     0.0000   222.0000 </r>
       <r>    -6.0560     0.0000   222.0000 </r>
       <r>    -5.9042     0.0000   222.0000 </r>
       <r>    -5.7525     0.0000   222.0000 </r>
       <r>    -5.6007     0.0000   222.0000 </r>
       <r>    -5.4490     0.0000   222.0000 </r>
       <r>    -5.2972     0.0000   222.0000 </r>
       <r>    -5.1455     0.0000   222.0000 </r>
       <r>    -4.9938     0.0000   222.0000 </r>
       <r>    -4.8420     0.0000   222.0000 </r>
       <r>    -4.6903     0.0000   222.0000 </r>
       <r>    -4.5385     0.0000   222.0000 </r>
       <r>    -4.3868     0.0000   222.0000 </r>
       <r>    -4.2351     0.0000   222.0000 </r>
       <r>    -4.0833     0.0000   222.0000 </r>
       <r>    -3.9316     0.0000   222.0000 </r>
       <r>    -3.7798     0.0000   222.0000 </r>
       <r>    -3.6281     0.0000   222.0000 </r>
       <r>    -3.4763     0.0000   222.0000 </r>
       <r>    -3.3246     0.0000   222.0000 </r>
       <r>    -3.1729     0.0000   222.0000 </r>
       <r>    -3.0211     0.0000   222.0000 </r>
       <r>    -2.8694     0.0000   222.0000 </r>
       <r>    -2.7176     0.0000   222.0000 </r>
       <r>    -2.5659     0.0000   222.0000 </r>
       <r>    -2.4141     0.0000   222.0000 </r>
       <r>    -2.2624     2.1375   222.3243 </r>
       <r>    -2.1107    15.8933   224.7360 </r>
       <r>    -1.9589    39.8598   230.7845 </r>
       <r>    -1.8072    43.4348   237.3753 </r>
       <r>    -1.6554    61.3960   246.6917 </r>
       <r>    -1.5037    55.6401   255.1347 </r>
       <r>    -1.3519    58.2715   263.9769 </r>
       <r>    -1.2002    70.0835   274.6116 </r>
       <r>    -1.0485    69.5134   285.1597 </r>
       <r>    -0.8967    78.1368   297.0163 </r>
       <r>    -0.7450    72.1134   307.9590 </r>
       <r>    -0.5932   111.1427   324.8240 </r>
       <r>    -0.4415   128.1014   344.2624 </r>
       <r>    -0.2898    73.5688   355.4259 </r>
       <r>    -0.1380    45.4821   362.3275 </r>
       <r>     0.0137    53.4130   370.4325 </r>
       <r>     0.1655    41.0278   376.6581 </r>
       <r>     0.3172    42.8035   383.1532 </r>
       <r>     0.4690    58.1488   391.9768 </r>
       <r>     0.6207    60.4963   401.1567 </r>
       <r>     0.7724    38.5413   407.0050 </r>
       <r>     0.9242    47.9928   414.2876 </r>
       <r>     1.0759    57.1591   422.9610 </r>
       <r>     1.2277    90.9623   436.7638 </r>
       <r>     1.3794    91.2329   450.6077 </r>
       <r>     1.5312   107.0254   466.8480 </r>
       <r>     1.6829    75.8226   478.3535 </r>
       <r>     1.8346    71.5344   489.2083 </r>
       <r>     1.9864    47.1241   496.3590 </r>
       <r>     2.1381    35.9866   501.8197 </r>
       <r>     2.2899    14.2735   503.9856 </r>
       <r>     2.4416     0.0950   504.0000 </r>
       <r>     2.5933     0.0000   504.0000 </r>
       <r>     2.7451     0.0000   504.0000 </r>
       <r>     2.8968     0.0000   504.0000 </r>
       <r>     3.0486     0.0000   504.0000 </r>
       <r>     3.2003     0.0000   504.0000 </r>
       <r>     3.3521     0.0000   504.0000 </r>
       <r>     3.5038     0.0000   504.0000 </r>
       <r>     3.6555     0.0000   504.0000 </r>
       <r>     3.8073     0.0000   504.0000 </r>
       <r>     3.9590     0.0000   504.0000 </r>
       <r>     4.1108     0.0000   504.0000 </r>
       <r>     4.2625     0.0000   504.0000 </r>
       <r>     4.4143     0.2938   504.0446 </r>
       <r>     4.5660    17.0945   506.6385 </r>
       <r>     4.7177    31.3147   511.3903 </r>
       <r>     4.8695    36.1838   516.8809 </r>
       <r>     5.0212    27.1762   521.0047 </r>
       <r>     5.1730    35.0610   526.3249 </r>
       <r>     5.3247    50.0367   533.9176 </r>
       <r>     5.4765    69.6625   544.4884 </r>
       <r>     5.6282    45.8412   551.4444 </r>
       <r>     5.7799    77.3149   563.1763 </r>
       <r>     5.9317   102.2526   578.6924 </r>
       <r>     6.0834    90.9180   592.4885 </r>
       <r>     6.2352    66.8507   602.6325 </r>
       <r>     6.3869    49.5648   610.1536 </r>
       <r>     6.5386    37.7229   615.8778 </r>
       <r>     6.6904    24.7935   619.6400 </r>
       <r>     6.8421    22.9851   623.1278 </r>
       <r>     6.9939    23.0297   626.6224 </r>
       <r>     7.1456    19.2365   629.5414 </r>
       <r>     7.2974    18.1143   632.2901 </r>
       <r>     7.4491    16.4268   634.7827 </r>
       <r>     7.6008    11.2892   636.4958 </r>
       <r>     7.7526    11.3900   638.2241 </r>
       <r>     7.9043    18.6754   641.0579 </r>
       <r>     8.0561    30.3813   645.6681 </r>
       <r>     8.2078    20.3467   648.7555 </r>
       <r>     8.3596    27.9710   652.9999 </r>
       <r>     8.5113    24.1726   656.6679 </r>
       <r>     8.6630    19.0218   659.5543 </r>
       <r>     8.8148    24.4550   663.2652 </r>
       <r>     8.9665    29.1757   667.6924 </r>
       <r>     9.1183    34.4301   672.9169 </r>
       <r>     9.2700    42.1093   679.3066 </r>
       <r>     9.4217    37.2714   684.9623 </r>
       <r>     9.5735    43.7717   691.6043 </r>
       <r>     9.7252    40.7802   697.7924 </r>
       <r>     9.8770    56.1190   706.3080 </r>
       <r>    10.0287    71.3686   717.1376 </r>
       <r>    10.1805    72.7555   728.1777 </r>
       <r>    10.3322    75.7646   739.6744 </r>
       <r>    10.4839    54.1979   747.8985 </r>
       <r>    10.6357    55.9684   756.3913 </r>
       <r>    10.7874    54.4679   764.6563 </r>
       <r>    10.9392    22.0132   767.9967 </r>
       <r>    11.0909     0.0219   768.0000 </r>
       <r>    11.2427     0.0000   768.0000 </r>
       <r>    11.3944     0.0000   768.0000 </r>
       <r>    11.5461     0.0000   768.0000 </r>
       <r>    11.6979     0.0000   768.0000 </r>
       <r>    11.8496     0.0000   768.0000 </r>
       <r>    12.0014     0.0000   768.0000 </r>
       <r>    12.1531     0.0000   768.0000 </r>
       <r>    12.3049     0.0000   768.0000 </r>
       <r>    12.4566     0.0000   768.0000 </r>
       <r>    12.6083     0.0000   768.0000 </r>
       <r>    12.7601     0.0000   768.0000 </r>
       <r>    12.9118     0.0000   768.0000 </r>
      </set>
     </set>
    </array>
   </total>
  </dos>
 </calculation>
 <structure name="finalpos" >
  <crystal>
   <varray name="basis" >
    <v>      11.21793214      -0.00221624      -0.00017728 </v>
    <v>      -0.00220999      11.22113162      -0.00031406 </v>
    <v>      -0.00025374      -0.00044498      15.92158367 </v>
   </varray>
   <i name="volume">   2004.17532595 </i>
   <varray name="rec_basis" >
    <v>       0.08914299       0.00001756       0.00000142 </v>
    <v>       0.00001761       0.08911758       0.00000249 </v>
    <v>       0.00000099       0.00000176       0.06280782 </v>
   </varray>
  </crystal>
  <varray name="positions" >
   <v>       0.99806146       0.25999395       0.12659262 </v>
   <v>       0.00076000       0.24876584       0.62508428 </v>
   <v>       0.99786091       0.74134064       0.13270733 </v>
   <v>       0.00079063       0.74956136       0.62327516 </v>
   <v>       0.49930500       0.25203509       0.12712958 </v>
   <v>       0.50014839       0.25014321       0.62463862 </v>
   <v>       0.50163088       0.74973256       0.12646297 </v>
   <v>       0.50062993       0.74952952       0.62496282 </v>
   <v>       0.00076679       0.24873364       0.37410509 </v>
   <v>       0.99790707       0.26024281       0.87423268 </v>
   <v>       0.00074572       0.74985839       0.37580752 </v>
   <v>       0.99788197       0.74095218       0.86783326 </v>
   <v>       0.50028303       0.25219304       0.37379318 </v>
   <v>       0.49902406       0.25045171       0.87467107 </v>
   <v>       0.50045064       0.74791920       0.37305850 </v>
   <v>       0.50241593       0.75184709       0.87525374 </v>
   <v>       0.25362622       0.00029486       0.12819486 </v>
   <v>       0.25011252       0.99869430       0.62390476 </v>
   <v>       0.25076932       0.49929591       0.12592234 </v>
   <v>       0.25087215       0.50146073       0.62535488 </v>
   <v>       0.74338774       0.00090772       0.12798478 </v>
   <v>       0.75107499       0.99940129       0.62500222 </v>
   <v>       0.74606075       0.49831884       0.12812040 </v>
   <v>       0.74952018       0.50105335       0.62428653 </v>
   <v>       0.24995686       0.99862471       0.37525875 </v>
   <v>       0.25412682       0.00024681       0.87227053 </v>
   <v>       0.25293527       0.50147487       0.37270984 </v>
   <v>       0.24856933       0.49974779       0.87592553 </v>
   <v>       0.75114420       0.99942577       0.37414562 </v>
   <v>       0.74331736       0.00080898       0.87294440 </v>
   <v>       0.74770173       0.50135527       0.37407598 </v>
   <v>       0.74822277       0.49793568       0.87337340 </v>
   <v>       0.25197959       0.25191104       0.00015670 </v>
   <v>       0.00024975       0.00097093       0.49976799 </v>
   <v>       0.50037100       0.49690881       0.00148642 </v>
   <v>       0.99981709       0.49952919       0.49980804 </v>
   <v>       0.99977766       0.49944327       0.25146672 </v>
   <v>       0.74961714       0.25009637       0.75014049 </v>
   <v>       0.49988588       0.50043810       0.49865947 </v>
   <v>       0.50009722       0.00003816       0.49985044 </v>
   <v>       0.24929435       0.24950900       0.49986963 </v>
   <v>       0.24978073       0.75071862       0.75202139 </v>
   <v>       0.25082686       0.74961048       0.49980431 </v>
   <v>       0.49938639       0.99940611       0.00030739 </v>
   <v>       0.75052251       0.24924333       0.49991982 </v>
   <v>       0.74741146       0.25254692       0.00028115 </v>
   <v>       0.74951594       0.74951809       0.49980733 </v>
   <v>       0.25103152       0.25078336       0.24961360 </v>
   <v>       0.24950464       0.24960408       0.75046637 </v>
   <v>       0.25062759       0.74952191       0.24773207 </v>
   <v>       0.74858028       0.25143250       0.25009962 </v>
   <v>       0.74895450       0.74988296       0.24841077 </v>
   <v>       0.75010402       0.75082576       0.75130946 </v>
   <v>       0.99956880       0.99776305       0.24825706 </v>
   <v>       0.99949478       0.99768938       0.75139575 </v>
   <v>       0.99959050       0.50624466       0.00037487 </v>
   <v>       0.99982679       0.49945787       0.74859304 </v>
   <v>       0.49953312       0.00012161       0.25059380 </v>
   <v>       0.49959264       0.00014007       0.74947324 </v>
   <v>       0.49921745       0.49995545       0.75045390 </v>
   <v>       0.26445665       0.74046476       0.00005382 </v>
   <v>       0.00443763       0.02548414       0.99975842 </v>
   <v>       0.74160058       0.73663207       0.00007858 </v>
   <v>       0.49945920       0.50013555       0.24946405 </v>
   <v>       0.10904900       0.13561700       0.23980655 </v>
   <v>       0.10853833       0.13650133       0.76024143 </v>
   <v>       0.11117264       0.63775697       0.25193781 </v>
   <v>       0.11102443       0.63819708       0.74819085 </v>
   <v>       0.61170654       0.13797426       0.24919176 </v>
   <v>       0.61101012       0.13928597       0.75092212 </v>
   <v>       0.61376409       0.64084005       0.24608363 </v>
   <v>       0.61114145       0.64039022       0.75411545 </v>
   <v>       0.39008727       0.86010420       0.75148140 </v>
   <v>       0.38852298       0.35999863       0.74733045 </v>
   <v>       0.38926647       0.86156191       0.24860613 </v>
   <v>       0.88937352       0.36046023       0.25123874 </v>
   <v>       0.88965967       0.36000306       0.74882282 </v>
   <v>       0.88987299       0.86055079       0.25463144 </v>
   <v>       0.89048497       0.85967786       0.74522180 </v>
   <v>       0.36039363       0.11045499       0.25057678 </v>
   <v>       0.35987404       0.11017432       0.74941762 </v>
   <v>       0.35930943       0.61420984       0.24558948 </v>
   <v>       0.35957756       0.61144885       0.75454835 </v>
   <v>       0.86251942       0.10871148       0.24266062 </v>
   <v>       0.86168849       0.10828698       0.75739628 </v>
   <v>       0.86199632       0.61126261       0.24837116 </v>
   <v>       0.86086930       0.61078258       0.75166133 </v>
   <v>       0.13710314       0.38765778       0.24999398 </v>
   <v>       0.13834878       0.38826090       0.75012583 </v>
   <v>       0.13827612       0.88974272       0.25181250 </v>
   <v>       0.13927179       0.89040566       0.74821604 </v>
   <v>       0.64019721       0.38661341       0.25265010 </v>
   <v>       0.63985425       0.38927178       0.74701685 </v>
   <v>       0.63912292       0.89021839       0.25090361 </v>
   <v>       0.63966157       0.89052056       0.74918348 </v>
   <v>       0.35740789       0.39310853       0.99951050 </v>
   <v>       0.35860578       0.38929417       0.50069049 </v>
   <v>       0.50065934       0.49606780       0.12357587 </v>
   <v>       0.35961002       0.89083650       0.50039775 </v>
   <v>       0.13876703       0.61546590       0.99992886 </v>
   <v>       0.85866374       0.39023833       0.50002445 </v>
   <v>       0.85780492       0.39554436       0.00005798 </v>
   <v>       0.86073038       0.89061107       0.50039952 </v>
   <v>       0.15047712       0.10477851       0.99941116 </v>
   <v>       0.14047912       0.10847968       0.50039184 </v>
   <v>       0.39867390       0.64102350       0.99894525 </v>
   <v>       0.14011061       0.60980546       0.50007946 </v>
   <v>       0.64260976       0.11020438       0.99972794 </v>
   <v>       0.64069832       0.10904514       0.50043918 </v>
   <v>       0.64320566       0.60176533       0.99891595 </v>
   <v>       0.64060074       0.60914036       0.50057524 </v>
   <v>       0.89744296       0.65288760       0.99974216 </v>
   <v>       0.10862642       0.35911590       0.50033752 </v>
   <v>       0.61807977       0.86537905       0.99981286 </v>
   <v>       0.10949753       0.86075731       0.50034946 </v>
   <v>       0.60676442       0.35604391       0.99958596 </v>
   <v>       0.61009563       0.35896160       0.50073040 </v>
   <v>       0.88892808       0.14417451       0.99947391 </v>
   <v>       0.60952097       0.85968635       0.50007670 </v>
   <v>       0.39413028       0.14386106       0.00009283 </v>
   <v>       0.39018977       0.14112082       0.50006627 </v>
   <v>       0.23921693       0.75967418       0.12223466 </v>
   <v>       0.39021838       0.64087360       0.50051923 </v>
   <v>       0.10943909       0.36055232       0.99972710 </v>
   <v>       0.89151185       0.14048955       0.50040384 </v>
   <v>       0.35744142       0.89337795       0.99969886 </v>
   <v>       0.89042323       0.64032105       0.50037233 </v>
   <v>       0.99525829       0.96682460       0.11106097 </v>
   <v>       0.00028201       0.00548571       0.62714790 </v>
   <v>       0.00003306       0.49935235       0.12541090 </v>
   <v>       0.50041803       0.00063040       0.12528757 </v>
   <v>       0.49932942       0.00062926       0.62509275 </v>
   <v>       0.23912921       0.75921701       0.87723806 </v>
   <v>       0.49868746       0.50379031       0.62576511 </v>
   <v>       0.00019846       0.00550035       0.37361184 </v>
   <v>       0.99500056       0.96650700       0.88832587 </v>
   <v>       0.99890611       0.50014290       0.37546617 </v>
   <v>       0.99989631       0.49931968       0.87448050 </v>
   <v>       0.49934357       0.00060227       0.37518739 </v>
   <v>       0.50030596       0.00071027       0.87455667 </v>
   <v>       0.49890160       0.50258821       0.37632509 </v>
   <v>       0.50074650       0.49464235       0.87423210 </v>
   <v>       0.24401559       0.24580620       0.37469395 </v>
   <v>       0.25311204       0.25311138       0.87502736 </v>
   <v>       0.25110270       0.75043435       0.37504710 </v>
   <v>       0.38583620       0.35965876       0.25232511 </v>
   <v>       0.75286385       0.24442969       0.37499613 </v>
   <v>       0.99895539       0.50013909       0.62477588 </v>
   <v>       0.74895890       0.74838632       0.37534823 </v>
   <v>       0.75762964       0.76178087       0.87641807 </v>
   <v>       0.25220164       0.25279601       0.12433073 </v>
   <v>       0.24441360       0.24587112       0.62595051 </v>
   <v>       0.74919111       0.25500466       0.87470572 </v>
   <v>       0.25126690       0.74980302       0.62565899 </v>
   <v>       0.74947349       0.25407731       0.12474122 </v>
   <v>       0.75287099       0.24497578       0.62568357 </v>
   <v>       0.75784728       0.76164543       0.12300430 </v>
   <v>       0.74827971       0.74813443       0.62530342 </v>
  </varray>
 </structure>
</modeling>
