       N       E                     dE             d eps       ncg     rms          rms(c)
DAV:   1    -0.111929825040E+04   -0.11193E+04   -0.68477E-02 13336   0.605E-01    0.477E-02
RMM:   2    -0.111929824818E+04    0.22220E-05   -0.58879E-05  7312   0.123E-02    0.711E-02
RMM:   3    -0.111929824850E+04   -0.32585E-06   -0.16920E-05  6997   0.779E-03    0.961E-03
RMM:   4    -0.111929824973E+04   -0.12327E-05   -0.86405E-06  5284   0.353E-03    0.638E-03
RMM:   5    -0.111929825065E+04   -0.91642E-06   -0.51220E-06  4946   0.395E-03    0.116E-02
RMM:   6    -0.111929825138E+04   -0.72985E-06   -0.33860E-06  3674   0.258E-03    0.208E-03
RMM:   7    -0.111929825160E+04   -0.21777E-06   -0.19416E-06  3316   0.272E-03    0.340E-03
RMM:   8    -0.111929825183E+04   -0.23084E-06   -0.14390E-06  2896   0.217E-03
   1 F= -.11192983E+04 E0= -.11192983E+04  d E =-.111930E+04  mag=    40.0000
       N       E                     dE             d eps       ncg     rms          rms(c)
DAV:   1    -0.111929791930E+04    0.33229E-03   -0.14583E+00 12880   0.141E+00    0.519E-01
RMM:   2    -0.111930145488E+04   -0.35356E-02   -0.46958E-02 12324   0.285E-01    0.475E-01
RMM:   3    -0.111930125224E+04    0.20264E-03   -0.24848E-03 12794   0.850E-02    0.302E-01
RMM:   4    -0.111930090909E+04    0.34315E-03   -0.11405E-03 11363   0.387E-02    0.160E-01
RMM:   5    -0.111930082299E+04    0.86097E-04   -0.32968E-04 10168   0.237E-02    0.710E-02
RMM:   6    -0.111930081874E+04    0.42578E-05   -0.45855E-05  7303   0.103E-02    0.373E-02
RMM:   7    -0.111930081778E+04    0.96086E-06   -0.20581E-05  7193   0.646E-03    0.254E-02
RMM:   8    -0.111930081652E+04    0.12511E-05   -0.12997E-05  6972   0.556E-03
   2 F= -.11193008E+04 E0= -.11193008E+04  d E =-.256469E-02  mag=    40.0000
       N       E                     dE             d eps       ncg     rms          rms(c)
DAV:   1    -0.111930103173E+04   -0.21395E-03   -0.11054E-01 12960   0.388E-01    0.145E-01
RMM:   2    -0.111930129988E+04   -0.26815E-03   -0.35381E-03 12242   0.788E-02    0.132E-01
RMM:   3    -0.111930128017E+04    0.19711E-04   -0.13508E-04  7661   0.233E-02    0.845E-02
RMM:   4    -0.111930125592E+04    0.24243E-04   -0.78329E-05  6879   0.121E-02    0.469E-02
RMM:   5    -0.111930125237E+04    0.35503E-05   -0.30452E-05  6678   0.787E-03    0.380E-02
RMM:   6    -0.111930125306E+04   -0.69221E-06   -0.86296E-06  5771   0.469E-03    0.121E-02
RMM:   7    -0.111930125331E+04   -0.24788E-06   -0.28821E-06  4300   0.273E-03    0.839E-03
RMM:   8    -0.111930125365E+04   -0.33376E-06   -0.14708E-06  4006   0.237E-03
   3 F= -.11193013E+04 E0= -.11193013E+04  d E =-.300182E-02  mag=    40.0000
       N       E                     dE             d eps       ncg     rms          rms(c)
DAV:   1    -0.111930094082E+04    0.31249E-03   -0.16125E+00 12728   0.150E+00    0.387E-01
RMM:   2    -0.111930500024E+04   -0.40594E-02   -0.41526E-02 12378   0.269E-01    0.276E-01
RMM:   3    -0.111930507660E+04   -0.76362E-04   -0.21693E-03 12264   0.884E-02    0.167E-01
RMM:   4    -0.111930496976E+04    0.10685E-03   -0.55717E-04 11206   0.274E-02    0.897E-02
RMM:   5    -0.111930494564E+04    0.24118E-04   -0.18379E-04  7521   0.186E-02    0.582E-02
RMM:   6    -0.111930495059E+04   -0.49541E-05   -0.49541E-05  7144   0.124E-02    0.293E-02
RMM:   7    -0.111930495371E+04   -0.31225E-05   -0.26633E-05  7062   0.667E-03    0.130E-02
RMM:   8    -0.111930495572E+04   -0.20074E-05   -0.15072E-05  6929   0.680E-03
   4 F= -.11193050E+04 E0= -.11193050E+04  d E =-.370207E-02  mag=    40.0000
       N       E                     dE             d eps       ncg     rms          rms(c)
DAV:   1    -0.111930173123E+04    0.32225E-02   -0.18298E+00 12568   0.160E+00    0.412E-01
RMM:   2    -0.111930638269E+04   -0.46515E-02   -0.47562E-02 12405   0.288E-01    0.295E-01
RMM:   3    -0.111930647190E+04   -0.89210E-04   -0.25502E-03 12451   0.937E-02    0.180E-01
RMM:   4    -0.111930635149E+04    0.12041E-03   -0.65034E-04 11945   0.291E-02    0.968E-02
RMM:   5    -0.111930632505E+04    0.26435E-04   -0.23957E-04  8117   0.200E-02    0.544E-02
RMM:   6    -0.111930633007E+04   -0.50188E-05   -0.58389E-05  7181   0.131E-02    0.321E-02
RMM:   7    -0.111930633365E+04   -0.35788E-05   -0.32783E-05  7113   0.744E-03    0.139E-02
RMM:   8    -0.111930633599E+04   -0.23448E-05   -0.19242E-05  7013   0.759E-03
   5 F= -.11193063E+04 E0= -.11193063E+04  d E =-.508235E-02  mag=    40.0000
       N       E                     dE             d eps       ncg     rms          rms(c)
DAV:   1    -0.111930641007E+04   -0.76416E-04   -0.11975E+00 12704   0.128E+00    0.299E-01
RMM:   2    -0.111930914613E+04   -0.27361E-02   -0.30761E-02 12420   0.227E-01    0.219E-01
RMM:   3    -0.111930912918E+04    0.16942E-04   -0.16247E-03 12166   0.765E-02    0.137E-01
RMM:   4    -0.111930906013E+04    0.69056E-04   -0.46508E-04 10553   0.241E-02    0.772E-02
RMM:   5    -0.111930904022E+04    0.19908E-04   -0.11938E-04  7317   0.157E-02    0.314E-02
RMM:   6    -0.111930904425E+04   -0.40270E-05   -0.39412E-05  7106   0.988E-03    0.196E-02
RMM:   7    -0.111930904620E+04   -0.19565E-05   -0.24115E-05  6865   0.657E-03    0.118E-02
RMM:   8    -0.111930904702E+04   -0.81358E-06   -0.14638E-05  6551   0.608E-03
   6 F= -.11193090E+04 E0= -.11193090E+04  d E =-.271102E-02  mag=    40.0000
       N       E                     dE             d eps       ncg     rms          rms(c)
DAV:   1    -0.111930640396E+04    0.26422E-02   -0.17372E+00 12560   0.155E+00    0.360E-01
RMM:   2    -0.111931037242E+04   -0.39685E-02   -0.44602E-02 12427   0.273E-01    0.264E-01
RMM:   3    -0.111931034966E+04    0.22755E-04   -0.23461E-03 12345   0.915E-02    0.166E-01
RMM:   4    -0.111931024953E+04    0.10013E-03   -0.66684E-04 11916   0.288E-02    0.922E-02
RMM:   5    -0.111931022005E+04    0.29476E-04   -0.17188E-04  7871   0.183E-02    0.390E-02
RMM:   6    -0.111931022548E+04   -0.54307E-05   -0.53091E-05  7166   0.115E-02    0.255E-02
RMM:   7    -0.111931022819E+04   -0.27054E-05   -0.32509E-05  7043   0.761E-03    0.145E-02
RMM:   8    -0.111931022919E+04   -0.10033E-05   -0.19748E-05  6785   0.710E-03
   7 F= -.11193102E+04 E0= -.11193102E+04  d E =-.389320E-02  mag=    40.0000
       N       E                     dE             d eps       ncg     rms          rms(c)
DAV:   1    -0.111930836177E+04    0.18664E-02   -0.18797E+00 12456   0.160E+00    0.358E-01
RMM:   2    -0.111931279252E+04   -0.44308E-02   -0.47074E-02 12466   0.279E-01    0.243E-01
RMM:   3    -0.111931281843E+04   -0.25906E-04   -0.24350E-03 12367   0.933E-02    0.150E-01
RMM:   4    -0.111931271081E+04    0.10762E-03   -0.66605E-04 12035   0.291E-02    0.778E-02
RMM:   5    -0.111931269429E+04    0.16524E-04   -0.16466E-04  7540   0.177E-02    0.407E-02
RMM:   6    -0.111931269985E+04   -0.55639E-05   -0.52961E-05  7166   0.113E-02    0.240E-02
RMM:   7    -0.111931270305E+04   -0.32011E-05   -0.31587E-05  6993   0.750E-03    0.150E-02
RMM:   8    -0.111931270464E+04   -0.15831E-05   -0.19285E-05  6705   0.686E-03
   8 F= -.11193127E+04 E0= -.11193127E+04  d E =-.247545E-02  mag=    40.0000
       N       E                     dE             d eps       ncg     rms          rms(c)
DAV:   1    -0.111931102523E+04    0.16778E-02   -0.94325E-01 12512   0.113E+00    0.254E-01
RMM:   2    -0.111931326859E+04   -0.22434E-02   -0.23805E-02 12536   0.198E-01    0.173E-01
RMM:   3    -0.111931327703E+04   -0.84395E-05   -0.12202E-03 11971   0.651E-02    0.107E-01
RMM:   4    -0.111931322120E+04    0.55821E-04   -0.31233E-04  8828   0.207E-02    0.566E-02
RMM:   5    -0.111931321434E+04    0.68649E-05   -0.91612E-05  7194   0.137E-02    0.318E-02
RMM:   6    -0.111931321765E+04   -0.33072E-05   -0.32005E-05  7064   0.900E-03    0.175E-02
RMM:   7    -0.111931321954E+04   -0.18952E-05   -0.19145E-05  6702   0.592E-03    0.114E-02
RMM:   8    -0.111931322056E+04   -0.10221E-05   -0.11508E-05  6404   0.539E-03
   9 F= -.11193132E+04 E0= -.11193132E+04  d E =-.299137E-02  mag=    40.0000
       N       E                     dE             d eps       ncg     rms          rms(c)
DAV:   1    -0.111931012652E+04    0.30930E-02   -0.23590E+00 12400   0.178E+00    0.398E-01
RMM:   2    -0.111931560562E+04   -0.54791E-02   -0.58324E-02 12423   0.308E-01    0.281E-01
RMM:   3    -0.111931562639E+04   -0.20763E-04   -0.29563E-03 12266   0.104E-01    0.173E-01
RMM:   4    -0.111931549759E+04    0.12880E-03   -0.76923E-04 12505   0.311E-02    0.963E-02
RMM:   5    -0.111931546798E+04    0.29613E-04   -0.25387E-04  8538   0.195E-02    0.426E-02
RMM:   6    -0.111931547239E+04   -0.44124E-05   -0.55842E-05  7171   0.115E-02    0.227E-02
RMM:   7    -0.111931547515E+04   -0.27577E-05   -0.31880E-05  7022   0.730E-03    0.134E-02
RMM:   8    -0.111931547619E+04   -0.10461E-05   -0.18414E-05  6735   0.683E-03
  10 F= -.11193155E+04 E0= -.11193155E+04  d E =-.225563E-02  mag=    40.0000
       N       E                     dE             d eps       ncg     rms          rms(c)
DAV:   1    -0.111931457762E+04    0.89752E-03   -0.50763E-01 12560   0.827E-01    0.184E-01
RMM:   2    -0.111931577846E+04   -0.12008E-02   -0.12761E-02 12511   0.144E-01    0.131E-01
RMM:   3    -0.111931577669E+04    0.17718E-05   -0.62532E-04 10538   0.474E-02    0.813E-02
RMM:   4    -0.111931574718E+04    0.29506E-04   -0.14437E-04  7361   0.152E-02    0.459E-02
RMM:   5    -0.111931574288E+04    0.43034E-05   -0.60579E-05  7105   0.104E-02    0.259E-02
RMM:   6    -0.111931574502E+04   -0.21418E-05   -0.21173E-05  6883   0.721E-03    0.140E-02
RMM:   7    -0.111931574618E+04   -0.11633E-05   -0.12757E-05  6341   0.463E-03    0.778E-03
RMM:   8    -0.111931574667E+04   -0.48924E-06   -0.72501E-06  5745   0.441E-03
  11 F= -.11193157E+04 E0= -.11193157E+04  d E =-.252611E-02  mag=    40.0000
       N       E                     dE             d eps       ncg     rms          rms(c)
DAV:   1    -0.111931261446E+04    0.31317E-02   -0.21876E+00 12448   0.171E+00    0.372E-01
RMM:   2    -0.111931775627E+04   -0.51418E-02   -0.53656E-02 12407   0.292E-01    0.258E-01
RMM:   3    -0.111931778198E+04   -0.25701E-04   -0.27060E-03 12218   0.992E-02    0.159E-01
RMM:   4    -0.111931765511E+04    0.12686E-03   -0.73198E-04 12329   0.303E-02    0.865E-02
RMM:   5    -0.111931763563E+04    0.19489E-04   -0.18376E-04  7785   0.182E-02    0.557E-02
RMM:   6    -0.111931764190E+04   -0.62722E-05   -0.53813E-05  7156   0.114E-02    0.224E-02
RMM:   7    -0.111931764520E+04   -0.33029E-05   -0.30900E-05  7027   0.751E-03    0.152E-02
RMM:   8    -0.111931764699E+04   -0.17897E-05   -0.19384E-05  6729   0.689E-03
  12 F= -.11193176E+04 E0= -.11193176E+04  d E =-.190032E-02  mag=    40.0000
       N       E                     dE             d eps       ncg     rms          rms(c)
DAV:   1    -0.111931694488E+04    0.70032E-03   -0.38585E-01 12592   0.718E-01    0.156E-01
RMM:   2    -0.111931788186E+04   -0.93698E-03   -0.97542E-03 12686   0.125E-01    0.110E-01
RMM:   3    -0.111931787478E+04    0.70809E-05   -0.44295E-04  9421   0.392E-02    0.683E-02
RMM:   4    -0.111931785141E+04    0.23368E-04   -0.10836E-04  7179   0.137E-02    0.367E-02
RMM:   5    -0.111931785095E+04    0.45578E-06   -0.45542E-05  7057   0.934E-03    0.196E-02
RMM:   6    -0.111931785293E+04   -0.19809E-05   -0.17509E-05  6829   0.620E-03    0.113E-02
RMM:   7    -0.111931785399E+04   -0.10605E-05   -0.10064E-05  6122   0.441E-03    0.579E-03
RMM:   8    -0.111931785464E+04   -0.64856E-06   -0.60555E-06  5332   0.372E-03
  13 F= -.11193179E+04 E0= -.11193179E+04  d E =-.210797E-02  mag=    40.0000
       N       E                     dE             d eps       ncg     rms          rms(c)
DAV:   1    -0.111931348127E+04    0.43727E-02   -0.25833E+00 12568   0.186E+00    0.402E-01
RMM:   2    -0.111931963757E+04   -0.61563E-02   -0.64186E-02 12393   0.319E-01    0.297E-01
RMM:   3    -0.111931966612E+04   -0.28551E-04   -0.32350E-03 12257   0.108E-01    0.183E-01
RMM:   4    -0.111931952248E+04    0.14364E-03   -0.89561E-04 12655   0.334E-02    0.111E-01
RMM:   5    -0.111931948616E+04    0.36321E-04   -0.23679E-04  8891   0.194E-02    0.685E-02
RMM:   6    -0.111931949437E+04   -0.82089E-05   -0.62192E-05  7184   0.117E-02    0.209E-02
RMM:   7    -0.111931949803E+04   -0.36566E-05   -0.32084E-05  7111   0.777E-03    0.164E-02
RMM:   8    -0.111931950023E+04   -0.22035E-05   -0.20329E-05  6815   0.691E-03
  14 F= -.11193195E+04 E0= -.11193195E+04  d E =-.164559E-02  mag=    40.0000
       N       E                     dE             d eps       ncg     rms          rms(c)
DAV:   1    -0.111931941380E+04    0.84220E-04   -0.46861E-02 13056   0.251E-01    0.542E-02
RMM:   2    -0.111931953465E+04   -0.12084E-03   -0.12451E-03 11954   0.450E-02    0.409E-02
RMM:   3    -0.111931953413E+04    0.51870E-06   -0.57766E-05  6994   0.151E-02    0.257E-02
RMM:   4    -0.111931953317E+04    0.95523E-06   -0.21778E-05  6860   0.626E-03    0.151E-02
RMM:   5    -0.111931953351E+04   -0.34037E-06   -0.99212E-06  6078   0.457E-03    0.132E-02
RMM:   6    -0.111931953402E+04   -0.50626E-06   -0.47741E-06  4987   0.326E-03    0.457E-03
RMM:   7    -0.111931953434E+04   -0.31682E-06   -0.27128E-06  4082   0.281E-03    0.229E-03
RMM:   8    -0.111931953450E+04   -0.16361E-06   -0.14440E-06  3033   0.236E-03
  15 F= -.11193195E+04 E0= -.11193195E+04  d E =-.167986E-02  mag=    40.0000
       N       E                     dE             d eps       ncg     rms          rms(c)
DAV:   1    -0.111931637757E+04    0.31568E-02   -0.21198E+00 12752   0.168E+00    0.371E-01
RMM:   2    -0.111932110467E+04   -0.47271E-02   -0.52295E-02 12398   0.287E-01    0.261E-01
RMM:   3    -0.111932106990E+04    0.34773E-04   -0.26489E-03 12107   0.982E-02    0.160E-01
RMM:   4    -0.111932095644E+04    0.11346E-03   -0.70040E-04 12211   0.299E-02    0.105E-01
RMM:   5    -0.111932091744E+04    0.38999E-04   -0.17049E-04  7539   0.181E-02    0.624E-02
RMM:   6    -0.111932092340E+04   -0.59649E-05   -0.61926E-05  7166   0.115E-02    0.212E-02
RMM:   7    -0.111932092529E+04   -0.18878E-05   -0.30385E-05  7055   0.810E-03    0.179E-02
RMM:   8    -0.111932092588E+04   -0.58803E-06   -0.19270E-05  6673   0.642E-03
  16 F= -.11193209E+04 E0= -.11193209E+04  d E =-.139138E-02  mag=    40.0000
       N       E                     dE             d eps       ncg     rms          rms(c)
DAV:   1    -0.111932084109E+04    0.84201E-04   -0.53060E-02 12656   0.266E-01    0.590E-02
RMM:   2    -0.111932096882E+04   -0.12773E-03   -0.14116E-03 12209   0.477E-02    0.422E-02
RMM:   3    -0.111932096566E+04    0.31634E-05   -0.61227E-05  6997   0.153E-02    0.260E-02
RMM:   4    -0.111932096391E+04    0.17500E-05   -0.22261E-05  6911   0.630E-03    0.161E-02
RMM:   5    -0.111932096262E+04    0.12906E-05   -0.99926E-06  6238   0.456E-03    0.115E-02
RMM:   6    -0.111932096285E+04   -0.22740E-06   -0.46178E-06  5081   0.318E-03    0.521E-03
RMM:   7    -0.111932096295E+04   -0.10150E-06   -0.26281E-06  4299   0.278E-03    0.237E-03
RMM:   8    -0.111932096291E+04    0.35652E-07   -0.12236E-06  3068   0.226E-03
  17 F= -.11193210E+04 E0= -.11193210E+04  d E =-.142841E-02  mag=    40.0000
       N       E                     dE             d eps       ncg     rms          rms(c)
DAV:   1    -0.111931781088E+04    0.31521E-02   -0.19263E+00 12672   0.160E+00    0.331E-01
RMM:   2    -0.111932232734E+04   -0.45165E-02   -0.46765E-02 12447   0.270E-01    0.219E-01
RMM:   3    -0.111932234897E+04   -0.21634E-04   -0.23561E-03 12151   0.932E-02    0.136E-01
RMM:   4    -0.111932224943E+04    0.99547E-04   -0.62150E-04 11632   0.277E-02    0.703E-02
RMM:   5    -0.111932224090E+04    0.85313E-05   -0.13377E-04  7346   0.162E-02    0.324E-02
RMM:   6    -0.111932224650E+04   -0.56037E-05   -0.44042E-05  7123   0.100E-02    0.174E-02
RMM:   7    -0.111932224940E+04   -0.28996E-05   -0.26213E-05  6902   0.688E-03    0.123E-02
RMM:   8    -0.111932225108E+04   -0.16820E-05   -0.16042E-05  6512   0.593E-03
  18 F= -.11193223E+04 E0= -.11193223E+04  d E =-.128817E-02  mag=    40.0000
       N       E                     dE             d eps       ncg     rms          rms(c)
DAV:   1    -0.111932161361E+04    0.63579E-03   -0.33861E-01 12640   0.671E-01    0.138E-01
RMM:   2    -0.111932243883E+04   -0.82522E-03   -0.85304E-03 12821   0.115E-01    0.926E-02
RMM:   3    -0.111932242541E+04    0.13424E-04   -0.35901E-04  8660   0.350E-02    0.581E-02
RMM:   4    -0.111932240657E+04    0.18840E-04   -0.94238E-05  7139   0.129E-02    0.299E-02
RMM:   5    -0.111932240809E+04   -0.15227E-05   -0.36082E-05  6963   0.847E-03    0.141E-02
RMM:   6    -0.111932240984E+04   -0.17517E-05   -0.14751E-05  6665   0.544E-03    0.744E-03
RMM:   7    -0.111932241075E+04   -0.90226E-06   -0.83508E-06  6014   0.420E-03    0.501E-03
RMM:   8    -0.111932241136E+04   -0.61507E-06   -0.50717E-06  4857   0.330E-03
  19 F= -.11193224E+04 E0= -.11193224E+04  d E =-.144845E-02  mag=    40.0000
       N       E                     dE             d eps       ncg     rms          rms(c)
DAV:   1    -0.111931992718E+04    0.24836E-02   -0.16793E+00 12336   0.149E+00    0.331E-01
RMM:   2    -0.111932370579E+04   -0.37786E-02   -0.41847E-02 12410   0.259E-01    0.237E-01
RMM:   3    -0.111932365938E+04    0.46416E-04   -0.21423E-03 12145   0.875E-02    0.145E-01
RMM:   4    -0.111932356578E+04    0.93596E-04   -0.58558E-04 11558   0.274E-02    0.101E-01
RMM:   5    -0.111932353619E+04    0.29593E-04   -0.13486E-04  7368   0.166E-02    0.569E-02
RMM:   6    -0.111932354424E+04   -0.80575E-05   -0.53545E-05  7156   0.102E-02    0.205E-02
RMM:   7    -0.111932354832E+04   -0.40737E-05   -0.25460E-05  7070   0.743E-03    0.176E-02
RMM:   8    -0.111932355095E+04   -0.26305E-05   -0.16346E-05  6710   0.549E-03
  20 F= -.11193236E+04 E0= -.11193236E+04  d E =-.113959E-02  mag=    40.0000
       N       E                     dE             d eps       ncg     rms          rms(c)
DAV:   1    -0.111932332834E+04    0.21998E-03   -0.12286E-01 12624   0.403E-01    0.896E-02
RMM:   2    -0.111932362171E+04   -0.29336E-03   -0.32130E-03 12622   0.719E-02    0.648E-02
RMM:   3    -0.111932361191E+04    0.97916E-05   -0.13119E-04  7418   0.216E-02    0.400E-02
RMM:   4    -0.111932360663E+04    0.52810E-05   -0.43519E-05  7012   0.904E-03    0.237E-02
RMM:   5    -0.111932360703E+04   -0.39436E-06   -0.18231E-05  6621   0.609E-03    0.188E-02
RMM:   6    -0.111932360816E+04   -0.11347E-05   -0.79899E-06  6021   0.412E-03    0.750E-03
RMM:   7    -0.111932360892E+04   -0.75770E-06   -0.43353E-06  5089   0.320E-03    0.422E-03
RMM:   8    -0.111932360952E+04   -0.59645E-06   -0.25155E-06  3926   0.264E-03
  21 F= -.11193236E+04 E0= -.11193236E+04  d E =-.119816E-02  mag=    40.0000
       N       E                     dE             d eps       ncg     rms          rms(c)
DAV:   1    -0.111932093332E+04    0.26756E-02   -0.16206E+00 12352   0.145E+00    0.304E-01
RMM:   2    -0.111932466418E+04   -0.37309E-02   -0.38808E-02 12456   0.248E-01    0.203E-01
RMM:   3    -0.111932467355E+04   -0.93691E-05   -0.19608E-03 11959   0.833E-02    0.127E-01
RMM:   4    -0.111932458773E+04    0.85822E-04   -0.49778E-04 10719   0.250E-02    0.711E-02
RMM:   5    -0.111932457251E+04    0.15222E-04   -0.13632E-04  7326   0.158E-02    0.334E-02
RMM:   6    -0.111932457625E+04   -0.37446E-05   -0.38753E-05  7093   0.978E-03    0.199E-02
RMM:   7    -0.111932457814E+04   -0.18894E-05   -0.22606E-05  6733   0.610E-03    0.117E-02
RMM:   8    -0.111932457875E+04   -0.60652E-06   -0.13801E-05  6503   0.575E-03
  22 F= -.11193246E+04 E0= -.11193246E+04  d E =-.969234E-03  mag=    40.0000
       N       E                     dE             d eps       ncg     rms          rms(c)
DAV:   1    -0.111932422160E+04    0.35654E-03   -0.19216E-01 12416   0.499E-01    0.105E-01
RMM:   2    -0.111932468376E+04   -0.46216E-03   -0.48061E-03 12803   0.867E-02    0.708E-02
RMM:   3    -0.111932467300E+04    0.10762E-04   -0.19206E-04  7740   0.259E-02    0.451E-02
RMM:   4    -0.111932466286E+04    0.10145E-04   -0.54652E-05  7039   0.101E-02    0.254E-02
RMM:   5    -0.111932466204E+04    0.81370E-06   -0.24107E-05  6686   0.685E-03    0.101E-02
RMM:   6    -0.111932466297E+04   -0.92402E-06   -0.93874E-06  5914   0.445E-03    0.589E-03
RMM:   7    -0.111932466338E+04   -0.41019E-06   -0.51888E-06  5286   0.345E-03    0.332E-03
RMM:   8    -0.111932466347E+04   -0.91764E-07   -0.29420E-06  4090   0.284E-03
  23 F= -.11193247E+04 E0= -.11193247E+04  d E =-.105395E-02  mag=    40.0000
       N       E                     dE             d eps       ncg     rms          rms(c)
DAV:   1    -0.111932180301E+04    0.28604E-02   -0.17644E+00 12304   0.151E+00    0.303E-01
RMM:   2    -0.111932575358E+04   -0.39506E-02   -0.42502E-02 12413   0.259E-01    0.208E-01
RMM:   3    -0.111932574016E+04    0.13414E-04   -0.21713E-03 11972   0.878E-02    0.131E-01
RMM:   4    -0.111932564191E+04    0.98254E-04   -0.57303E-04 11394   0.265E-02    0.770E-02
RMM:   5    -0.111932561773E+04    0.24179E-04   -0.14672E-04  7483   0.161E-02    0.424E-02
RMM:   6    -0.111932562213E+04   -0.44005E-05   -0.44611E-05  7139   0.987E-03    0.189E-02
RMM:   7    -0.111932562395E+04   -0.18138E-05   -0.24163E-05  6861   0.662E-03    0.135E-02
RMM:   8    -0.111932562452E+04   -0.56985E-06   -0.14831E-05  6527   0.564E-03
  24 F= -.11193256E+04 E0= -.11193256E+04  d E =-.961047E-03  mag=    40.0000
       N       E                     dE             d eps       ncg     rms          rms(c)
DAV:   1    -0.111932556485E+04    0.59100E-04   -0.36429E-02 13072   0.217E-01    0.433E-02
RMM:   2    -0.111932565126E+04   -0.86417E-04   -0.92843E-04 11373   0.390E-02    0.305E-02
RMM:   3    -0.111932565065E+04    0.60991E-06   -0.45424E-05  6963   0.129E-02    0.200E-02
RMM:   4    -0.111932564980E+04    0.84999E-06   -0.16516E-05  6550   0.571E-03    0.126E-02
RMM:   5    -0.111932564922E+04    0.58074E-06   -0.82084E-06  5619   0.398E-03    0.706E-03
RMM:   6    -0.111932564951E+04   -0.28934E-06   -0.40702E-06  4342   0.307E-03    0.343E-03
RMM:   7    -0.111932564968E+04   -0.16767E-06   -0.22050E-06  3528   0.251E-03    0.168E-03
RMM:   8    -0.111932564972E+04   -0.41604E-07   -0.11011E-06  2704   0.231E-03
  25 F= -.11193256E+04 E0= -.11193256E+04  d E =-.986252E-03  mag=    40.0000
       N       E                     dE             d eps       ncg     rms          rms(c)
DAV:   1    -0.111932360820E+04    0.20415E-02   -0.13032E+00 12576   0.130E+00    0.269E-01
RMM:   2    -0.111932657035E+04   -0.29621E-02   -0.31334E-02 12451   0.223E-01    0.184E-01
RMM:   3    -0.111932656756E+04    0.27834E-05   -0.16038E-03 11850   0.753E-02    0.115E-01
RMM:   4    -0.111932649997E+04    0.67595E-04   -0.40485E-04  9816   0.228E-02    0.667E-02
RMM:   5    -0.111932648487E+04    0.15099E-04   -0.12131E-04  7284   0.152E-02    0.499E-02
RMM:   6    -0.111932648874E+04   -0.38666E-05   -0.37969E-05  7065   0.993E-03    0.211E-02
RMM:   7    -0.111932649124E+04   -0.25087E-05   -0.20168E-05  6831   0.600E-03    0.139E-02
RMM:   8    -0.111932649258E+04   -0.13369E-05   -0.12101E-05  6525   0.559E-03
  26 F= -.11193265E+04 E0= -.11193265E+04  d E =-.842860E-03  mag=    40.0000
       N       E                     dE             d eps       ncg     rms          rms(c)
DAV:   1    -0.111932634771E+04    0.14354E-03   -0.84296E-02 12352   0.331E-01    0.686E-02
RMM:   2    -0.111932655271E+04   -0.20500E-03   -0.21546E-03 12665   0.580E-02    0.483E-02
RMM:   3    -0.111932654584E+04    0.68691E-05   -0.79847E-05  7055   0.171E-02    0.308E-02
RMM:   4    -0.111932654290E+04    0.29351E-05   -0.26649E-05  6883   0.679E-03    0.186E-02
RMM:   5    -0.111932654255E+04    0.35597E-06   -0.12076E-05  6304   0.476E-03    0.805E-03
RMM:   6    -0.111932654315E+04   -0.60737E-06   -0.47191E-06  5185   0.324E-03    0.419E-03
RMM:   7    -0.111932654344E+04   -0.28270E-06   -0.23385E-06  4226   0.268E-03    0.233E-03
RMM:   8    -0.111932654362E+04   -0.18376E-06   -0.11554E-06  3207   0.220E-03
  27 F= -.11193265E+04 E0= -.11193265E+04  d E =-.893899E-03  mag=    40.0000
       N       E                     dE             d eps       ncg     rms          rms(c)
DAV:   1    -0.111932491841E+04    0.16250E-02   -0.10481E+00 12672   0.117E+00    0.255E-01
RMM:   2    -0.111932730395E+04   -0.23855E-02   -0.25664E-02 12427   0.202E-01    0.184E-01
RMM:   3    -0.111932729546E+04    0.84879E-05   -0.13245E-03 11739   0.689E-02    0.115E-01
RMM:   4    -0.111932723676E+04    0.58698E-04   -0.35620E-04  9178   0.215E-02    0.702E-02
RMM:   5    -0.111932722444E+04    0.12326E-04   -0.92454E-05  7196   0.139E-02    0.446E-02
RMM:   6    -0.111932722916E+04   -0.47158E-05   -0.31559E-05  7046   0.883E-03    0.164E-02
RMM:   7    -0.111932723134E+04   -0.21851E-05   -0.17267E-05  6789   0.584E-03    0.128E-02
RMM:   8    -0.111932723280E+04   -0.14572E-05   -0.10666E-05  6565   0.507E-03
  28 F= -.11193272E+04 E0= -.11193272E+04  d E =-.689177E-03  mag=    40.0000
       N       E                     dE             d eps       ncg     rms          rms(c)
DAV:   1    -0.111932720884E+04    0.22498E-04   -0.13895E-02 13296   0.135E-01    0.294E-02
RMM:   2    -0.111932723995E+04   -0.31104E-04   -0.33327E-04  8238   0.245E-02    0.250E-02
RMM:   3    -0.111932724267E+04   -0.27249E-05   -0.31310E-05  6571   0.104E-02    0.155E-02
RMM:   4    -0.111932724306E+04   -0.39187E-06   -0.10650E-05  5995   0.467E-03    0.142E-02
RMM:   5    -0.111932724316E+04   -0.97847E-07   -0.47010E-06  4487   0.342E-03    0.629E-03
RMM:   6    -0.111932724345E+04   -0.28571E-06   -0.27965E-06  3790   0.264E-03    0.267E-03
RMM:   7    -0.111932724359E+04   -0.13884E-06   -0.13786E-06  2861   0.249E-03    0.137E-03
RMM:   8    -0.111932724367E+04   -0.80778E-07   -0.70584E-07  2104   0.210E-03
  29 F= -.11193272E+04 E0= -.11193272E+04  d E =-.700046E-03  mag=    40.0000
       N       E                     dE             d eps       ncg     rms          rms(c)
DAV:   1    -0.111932582249E+04    0.14211E-02   -0.84128E-01 12568   0.105E+00    0.224E-01
RMM:   2    -0.111932774856E+04   -0.19261E-02   -0.20529E-02 12380   0.181E-01    0.163E-01
RMM:   3    -0.111932775172E+04   -0.31621E-05   -0.10618E-03 11528   0.624E-02    0.103E-01
RMM:   4    -0.111932770537E+04    0.46349E-04   -0.26215E-04  8164   0.190E-02    0.611E-02
RMM:   5    -0.111932769642E+04    0.89477E-05   -0.83752E-05  7164   0.128E-02    0.468E-02
RMM:   6    -0.111932769900E+04   -0.25794E-05   -0.27768E-05  6900   0.863E-03    0.160E-02
RMM:   7    -0.111932770036E+04   -0.13614E-05   -0.15519E-05  6498   0.522E-03    0.117E-02
RMM:   8    -0.111932770095E+04   -0.58433E-06   -0.89000E-06  6056   0.499E-03
  30 F= -.11193277E+04 E0= -.11193277E+04  d E =-.457282E-03  mag=    40.0000
