<?xml version="1.0" encoding="ISO-8859-1"?>
<modeling>
 <generator>
  <i name="program" type="string">vasp </i>
  <i name="version" type="string">5.4.1  </i>
  <i name="subversion" type="string">05Feb16 (build Jan 25 2017 20:16:33) complex                          parallel </i>
  <i name="platform" type="string">BWXE6 </i>
  <i name="date" type="string">2019 07 01 </i>
  <i name="time" type="string">15:13:28 </i>
 </generator>
 <incar>
  <i type="string" name="SYSTEM"> STF</i>
  <i type="string" name="PREC">normal</i>
  <i type="string" name="ALGO"> Fast</i>
  <i type="int" name="ISPIN">     2</i>
  <i type="int" name="NELM">    40</i>
  <i type="int" name="NELMIN">     8</i>
  <i type="int" name="IBRION">     2</i>
  <i name="EDIFF">      0.00010000</i>
  <i name="EDIFFG">     -0.03000000</i>
  <i type="int" name="NSW">    30</i>
  <i type="int" name="ISIF">     3</i>
  <i name="ENCUT">    520.00000000</i>
  <i type="int" name="NBANDS">   768</i>
  <v name="MAGMOM">      0.60000000      0.60000000      0.60000000      0.60000000      0.60000000      0.60000000      0.60000000      0.60000000      0.60000000      0.60000000      0.60000000      0.60000000      0.60000000      0.60000000      0.60000000      0.60000000      0.60000000      0.60000000      0.60000000      0.60000000
      0.60000000      0.60000000      0.60000000      0.60000000      0.60000000      0.60000000      0.60000000      0.60000000      0.60000000      0.60000000      0.60000000      0.60000000      0.60000000      0.60000000      0.60000000      0.60000000      0.60000000      0.60000000      0.60000000      0.60000000
      5.00000000      5.00000000      5.00000000      5.00000000      5.00000000      5.00000000      5.00000000      5.00000000      5.00000000      5.00000000      5.00000000      5.00000000      5.00000000      5.00000000      5.00000000      5.00000000      5.00000000      5.00000000      5.00000000      5.00000000
      5.00000000      5.00000000      5.00000000      5.00000000      0.60000000      0.60000000      0.60000000      0.60000000      0.60000000      0.60000000      0.60000000      0.60000000      0.60000000      0.60000000      0.60000000      0.60000000      0.60000000      0.60000000      0.60000000      0.60000000
      0.60000000      0.60000000      0.60000000      0.60000000      0.60000000      0.60000000      0.60000000      0.60000000      0.60000000      0.60000000      0.60000000      0.60000000      0.60000000      0.60000000      0.60000000      0.60000000      0.60000000      0.60000000      0.60000000      0.60000000
      0.60000000      0.60000000      0.60000000      0.60000000      0.60000000      0.60000000      0.60000000      0.60000000      0.60000000      0.60000000      0.60000000      0.60000000      0.60000000      0.60000000      0.60000000      0.60000000      0.60000000      0.60000000      0.60000000      0.60000000
      0.60000000      0.60000000      0.60000000      0.60000000      0.60000000      0.60000000      0.60000000      0.60000000      0.60000000      0.60000000      0.60000000      0.60000000      0.60000000      0.60000000      0.60000000      0.60000000      0.60000000      0.60000000      0.60000000      0.60000000
      0.60000000      0.60000000      0.60000000      0.60000000      0.60000000      0.60000000      0.60000000      0.60000000</v>
  <i type="string" name="LREAL"> Auto</i>
  <i type="int" name="ISMEAR">     0</i>
  <i name="SIGMA">      0.05000000</i>
  <i type="int" name="LMAXMIX">     4</i>
  <v type="int" name="KPOINT_BSE">    -1     0     0     0</v>
  <i type="int" name="NELM">    40</i>
  <i type="logical" name="LDAU"> T  </i>
  <v type="int" name="LDAUTYPE">     2</v>
  <v type="int" name="LDAUL">     0     2     2     0</v>
  <v name="LDAUU">      0.00000000      3.00000000      5.00000000      0.00000000</v>
  <v name="LDAUJ">      0.00000000      0.00000000      0.00000000      0.00000000</v>
  <i type="int" name="LDAUPRINT">     1</i>
 </incar>
 <kpoints>
  <generation param="Monkhorst-Pack">
   <v type="int" name="divisions">       2        2        2 </v>
   <v name="usershift">      0.00000000       0.00000000       0.00000000 </v>
   <v name="genvec1">      0.50000000      -0.00000000       0.00000000 </v>
   <v name="genvec2">      0.00000000       0.50000000       0.00000000 </v>
   <v name="genvec3">      0.00000000       0.00000000       0.50000000 </v>
   <v name="shift">      0.50000000       0.50000000       0.50000000 </v>
  </generation>
  <varray name="kpointlist" >
   <v>       0.25000000       0.25000000       0.25000000 </v>
   <v>      -0.25000000       0.25000000       0.25000000 </v>
   <v>       0.25000000      -0.25000000       0.25000000 </v>
   <v>      -0.25000000      -0.25000000       0.25000000 </v>
  </varray>
  <varray name="weights" >
   <v>       0.25000000 </v>
   <v>       0.25000000 </v>
   <v>       0.25000000 </v>
   <v>       0.25000000 </v>
  </varray>
 </kpoints>
 <parameters>
  <separator name="general" >
   <i type="string" name="SYSTEM">STF</i>
   <i type="logical" name="LCOMPAT"> F  </i>
  </separator>
  <separator name="electronic" >
   <i type="string" name="PREC">normal</i>
   <i name="ENMAX">    520.00000000</i>
   <i name="ENAUG">    605.39200000</i>
   <i name="EDIFF">      0.00010000</i>
   <i type="int" name="IALGO">    68</i>
   <i type="int" name="IWAVPR">    11</i>
   <i type="int" name="NBANDS">   768</i>
   <i name="NELECT">   1048.00000000</i>
   <i type="int" name="TURBO">     0</i>
   <i type="int" name="IRESTART">     0</i>
   <i type="int" name="NREBOOT">     0</i>
   <i type="int" name="NMIN">     0</i>
   <i name="EREF">      0.00000000</i>
   <separator name="electronic smearing" >
    <i type="int" name="ISMEAR">     0</i>
    <i name="SIGMA">      0.05000000</i>
    <i name="KSPACING">      0.50000000</i>
    <i type="logical" name="KGAMMA"> T  </i>
   </separator>
   <separator name="electronic projectors" >
    <i type="logical" name="LREAL"> T  </i>
    <v name="ROPT">     -0.00050000     -0.00050000     -0.00050000     -0.00050000</v>
    <i type="int" name="LMAXPAW">  -100</i>
    <i type="int" name="LMAXMIX">     4</i>
    <i type="logical" name="NLSPLINE"> F  </i>
   </separator>
   <separator name="electronic startup" >
    <i type="int" name="ISTART">     1</i>
    <i type="int" name="ICHARG">     0</i>
    <i type="int" name="INIWAV">     1</i>
   </separator>
   <separator name="electronic spin" >
    <i type="int" name="ISPIN">     2</i>
    <i type="logical" name="LNONCOLLINEAR"> F  </i>
    <v name="MAGMOM">      0.60000000      0.60000000      0.60000000      0.60000000      0.60000000      0.60000000      0.60000000      0.60000000      0.60000000      0.60000000      0.60000000      0.60000000      0.60000000      0.60000000      0.60000000      0.60000000      0.60000000      0.60000000      0.60000000      0.60000000
      0.60000000      0.60000000      0.60000000      0.60000000      0.60000000      0.60000000      0.60000000      0.60000000      0.60000000      0.60000000      0.60000000      0.60000000      0.60000000      0.60000000      0.60000000      0.60000000      0.60000000      0.60000000      0.60000000      0.60000000
      5.00000000      5.00000000      5.00000000      5.00000000      5.00000000      5.00000000      5.00000000      5.00000000      5.00000000      5.00000000      5.00000000      5.00000000      5.00000000      5.00000000      5.00000000      5.00000000      5.00000000      5.00000000      5.00000000      5.00000000
      5.00000000      5.00000000      5.00000000      5.00000000      0.60000000      0.60000000      0.60000000      0.60000000      0.60000000      0.60000000      0.60000000      0.60000000      0.60000000      0.60000000      0.60000000      0.60000000      0.60000000      0.60000000      0.60000000      0.60000000
      0.60000000      0.60000000      0.60000000      0.60000000      0.60000000      0.60000000      0.60000000      0.60000000      0.60000000      0.60000000      0.60000000      0.60000000      0.60000000      0.60000000      0.60000000      0.60000000      0.60000000      0.60000000      0.60000000      0.60000000
      0.60000000      0.60000000      0.60000000      0.60000000      0.60000000      0.60000000      0.60000000      0.60000000      0.60000000      0.60000000      0.60000000      0.60000000      0.60000000      0.60000000      0.60000000      0.60000000      0.60000000      0.60000000      0.60000000      0.60000000
      0.60000000      0.60000000      0.60000000      0.60000000      0.60000000      0.60000000      0.60000000      0.60000000      0.60000000      0.60000000      0.60000000      0.60000000      0.60000000      0.60000000      0.60000000      0.60000000      0.60000000      0.60000000      0.60000000      0.60000000
      0.60000000      0.60000000      0.60000000      0.60000000      0.60000000      0.60000000      0.60000000      0.60000000</v>
    <i name="NUPDOWN">     -1.00000000</i>
    <i type="logical" name="LSORBIT"> F  </i>
    <v name="SAXIS">      0.00000000      0.00000000      1.00000000</v>
    <i type="logical" name="LSPIRAL"> F  </i>
    <v name="QSPIRAL">      0.00000000      0.00000000      0.00000000</v>
    <i type="logical" name="LZEROZ"> F  </i>
   </separator>
   <separator name="electronic exchange-correlation" >
    <i type="logical" name="LASPH"> F  </i>
    <i type="logical" name="LMETAGGA"> F  </i>
   </separator>
   <separator name="electronic convergence" >
    <i type="int" name="NELM">    40</i>
    <i type="int" name="NELMDL">     0</i>
    <i type="int" name="NELMIN">     8</i>
    <i name="ENINI">    520.00000000</i>
    <separator name="electronic convergence detail" >
     <i type="logical" name="LDIAG"> T  </i>
     <i type="logical" name="LSUBROT"> F  </i>
     <i name="WEIMIN">      0.00100000</i>
     <i name="EBREAK">      0.00000003</i>
     <i name="DEPER">      0.30000000</i>
     <i type="int" name="NRMM">     4</i>
     <i name="TIME">      0.40000000</i>
    </separator>
   </separator>
   <separator name="electronic mixer" >
    <i name="AMIX">      0.40000000</i>
    <i name="BMIX">      1.00000000</i>
    <i name="AMIN">      0.10000000</i>
    <i name="AMIX_MAG">      1.60000000</i>
    <i name="BMIX_MAG">      1.00000000</i>
    <separator name="electronic mixer details" >
     <i type="int" name="IMIX">     4</i>
     <i type="logical" name="MIXFIRST"> F  </i>
     <i type="int" name="MAXMIX">   -45</i>
     <i name="WC">    100.00000000</i>
     <i type="int" name="INIMIX">     1</i>
     <i type="int" name="MIXPRE">     1</i>
     <i type="int" name="MREMOVE">     5</i>
    </separator>
   </separator>
   <separator name="electronic dipolcorrection" >
    <i type="logical" name="LDIPOL"> F  </i>
    <i type="logical" name="LMONO"> F  </i>
    <i type="int" name="IDIPOL">     0</i>
    <i name="EPSILON">      1.00000000</i>
    <v name="DIPOL">   -100.00000000   -100.00000000   -100.00000000</v>
    <i name="EFIELD">      0.00000000</i>
   </separator>
  </separator>
  <separator name="grids" >
   <i type="int" name="NGX">    64</i>
   <i type="int" name="NGY">    64</i>
   <i type="int" name="NGZ">    90</i>
   <i type="int" name="NGXF">   128</i>
   <i type="int" name="NGYF">   128</i>
   <i type="int" name="NGZF">   180</i>
   <i type="logical" name="ADDGRID"> F  </i>
  </separator>
  <separator name="ionic" >
   <i type="int" name="NSW">    30</i>
   <i type="int" name="IBRION">     2</i>
   <i type="int" name="ISIF">     3</i>
   <i name="PSTRESS">      0.00000000</i>
   <i name="EDIFFG">     -0.03000000</i>
   <i type="int" name="NFREE">     1</i>
   <i name="POTIM">      0.50000000</i>
   <i name="SMASS">     -3.00000000</i>
   <i name="SCALEE">      1.00000000</i>
  </separator>
  <separator name="ionic md" >
   <i name="TEBEG">      0.00010000</i>
   <i name="TEEND">      0.00010000</i>
   <i type="int" name="NBLOCK">     1</i>
   <i type="int" name="KBLOCK">    30</i>
   <i type="int" name="NPACO">   256</i>
   <i name="APACO">     16.00000000</i>
  </separator>
  <separator name="symmetry" >
   <i type="int" name="ISYM">     2</i>
   <i name="SYMPREC">      0.00001000</i>
  </separator>
  <separator name="dos" >
   <i type="logical" name="LORBIT"> F  </i>
   <v name="RWIGS">     -1.00000000     -1.00000000     -1.00000000     -1.00000000</v>
   <i type="int" name="NEDOS">   301</i>
   <i name="EMIN">     10.00000000</i>
   <i name="EMAX">    -10.00000000</i>
   <i name="EFERMI">      0.00000000</i>
  </separator>
  <separator name="writing" >
   <i type="int" name="NWRITE">     2</i>
   <i type="logical" name="LWAVE"> T  </i>
   <i type="logical" name="LCHARG"> T  </i>
   <i type="logical" name="LPARD"> F  </i>
   <i type="logical" name="LVTOT"> F  </i>
   <i type="logical" name="LVHAR"> F  </i>
   <i type="logical" name="LELF"> F  </i>
   <i type="logical" name="LOPTICS"> F  </i>
   <v name="STM">      0.00000000      0.00000000      0.00000000      0.00000000      0.00000000      0.00000000      0.00000000</v>
  </separator>
  <separator name="performance" >
   <i type="int" name="NPAR">     2</i>
   <i type="int" name="NSIM">     4</i>
   <i type="int" name="NBLK">    -1</i>
   <i type="logical" name="LPLANE"> T  </i>
   <i type="logical" name="LSCALAPACK"> T  </i>
   <i type="logical" name="LSCAAWARE"> F  </i>
   <i type="logical" name="LSCALU"> F  </i>
   <i type="logical" name="LASYNC"> F  </i>
   <i type="logical" name="LORBITALREAL"> F  </i>
  </separator>
  <separator name="miscellaneous" >
   <i type="int" name="IDIOT">     3</i>
   <i type="logical" name="LMUSIC"> F  </i>
   <v name="POMASS">     87.62000000     47.88000000     55.84700000     16.00000000</v>
   <v name="DARWINR">      0.00000000      0.00000000      0.00000000      0.00000000</v>
   <v name="DARWINV">      1.00000000      1.00000000      1.00000000      1.00000000</v>
   <i type="logical" name="LCORR"> T  </i>
  </separator>
  <i type="logical" name="GGA_COMPAT"> T  </i>
  <i type="logical" name="LBERRY"> F  </i>
  <i type="int" name="ICORELEVEL">     0</i>
  <i type="logical" name="LDAU"> T  </i>
  <v type="int" name="LDAUTYPE">     2</v>
  <v type="int" name="LDAUL">     0</v>
  <v name="LDAUU">      0.00000000</v>
  <v name="LDAUJ">      0.00000000</v>
  <i type="int" name="LDAUPRINT">     1</i>
  <i type="int" name="I_CONSTRAINED_M">     0</i>
  <separator name="electronic exchange-correlation" >
   <i type="string" name="GGA">--</i>
   <i type="int" name="VOSKOWN">     0</i>
   <i type="logical" name="LHFCALC"> F  </i>
   <i type="string" name="PRECFOCK"></i>
   <i type="logical" name="LSYMGRAD"> F  </i>
   <i type="logical" name="LHFONE"> F  </i>
   <i type="logical" name="LRHFCALC"> F  </i>
   <i type="logical" name="LTHOMAS"> F  </i>
   <i type="logical" name="LMODELHF"> F  </i>
   <i name="ENCUT4O">     -1.00000000</i>
   <i type="int" name="EXXOEP">     0</i>
   <i type="int" name="FOURORBIT">     0</i>
   <i name="AEXX">      0.00000000</i>
   <i name="HFALPHA">      0.00000000</i>
   <i name="MCALPHA">      0.00000000</i>
   <i name="ALDAX">      1.00000000</i>
   <i name="AGGAX">      1.00000000</i>
   <i name="ALDAC">      1.00000000</i>
   <i name="AGGAC">      1.00000000</i>
   <i type="int" name="NKREDX">     1</i>
   <i type="int" name="NKREDY">     1</i>
   <i type="int" name="NKREDZ">     1</i>
   <i type="logical" name="SHIFTRED"> F  </i>
   <i type="logical" name="ODDONLY"> F  </i>
   <i type="logical" name="EVENONLY"> F  </i>
   <i type="int" name="LMAXFOCK">     0</i>
   <i type="int" name="NMAXFOCKAE">     0</i>
   <i type="logical" name="LFOCKAEDFT"> F  </i>
   <i name="HFSCREEN">      0.00000000</i>
   <i name="HFSCREENC">      0.00000000</i>
   <i type="int" name="NBANDSGWLOW">     0</i>
  </separator>
  <separator name="vdW DFT" >
   <i type="logical" name="LUSE_VDW"> F  </i>
   <i name="Zab_VDW">     -0.84910000</i>
   <i name="PARAM1">      0.12340000</i>
   <i name="PARAM2">      1.00000000</i>
   <i name="PARAM3">      0.00000000</i>
  </separator>
  <separator name="model GW" >
   <i type="int" name="MODEL_GW">     0</i>
   <i name="MODEL_EPS0">      8.13977244</i>
   <i name="MODEL_ALPHA">      1.00000000</i>
  </separator>
  <separator name="linear response parameters" >
   <i type="logical" name="LEPSILON"> F  </i>
   <i type="logical" name="LRPA"> F  </i>
   <i type="logical" name="LNABLA"> F  </i>
   <i type="logical" name="LVEL"> F  </i>
   <i type="int" name="KINTER">     0</i>
   <i name="CSHIFT">      0.10000000</i>
   <i name="OMEGAMAX">     -1.00000000</i>
   <i name="DEG_THRESHOLD">      0.00200000</i>
  </separator>
  <separator name="orbital magnetization" >
   <i type="logical" name="NUCIND"> F  </i>
   <v name="MAGPOS">      0.00000000      0.00000000      0.00000000</v>
   <i type="logical" name="LNICSALL"> T  </i>
   <i type="logical" name="ORBITALMAG"> F  </i>
   <i type="logical" name="LMAGBLOCH"> F  </i>
   <i type="logical" name="LCHIMAG"> F  </i>
   <i type="logical" name="LGAUGE"> T  </i>
   <i type="int" name="MAGATOM">     0</i>
   <v name="MAGDIPOL">      0.00000000      0.00000000      0.00000000</v>
   <v name="AVECCONST">      0.00000000      0.00000000      0.00000000</v>
  </separator>
  <separator name="response functions" >
   <i type="logical" name="LADDER"> F  </i>
   <i type="logical" name="LFXC"> F  </i>
   <i type="logical" name="LHARTREE"> T  </i>
   <i type="int" name="IBSE">     0</i>
   <v type="int" name="KPOINT">    -1     0     0     0</v>
   <i type="logical" name="LTCTE"> F  </i>
   <i type="logical" name="LTETE"> F  </i>
   <i type="logical" name="LTRIPLET"> F  </i>
   <i type="logical" name="LFXCEPS"> F  </i>
   <i type="logical" name="LFXHEG"> F  </i>
   <i type="int" name="NATURALO">     0</i>
   <i type="logical" name="L2ORDER"> F  </i>
   <i type="logical" name="LUSEW"> F  </i>
   <i name="ENCUTGW">     -2.00000000</i>
   <i name="ENCUTGWSOFT">     -2.00000000</i>
   <i name="ENCUTLF">     -1.00000000</i>
   <i type="int" name="LMAXMP2">    -1</i>
   <i name="SCISSOR">      0.00000000</i>
   <i type="int" name="NOMEGA">     0</i>
   <i type="int" name="NOMEGAR">     0</i>
   <i type="int" name="NBANDSGW">    -1</i>
   <i type="int" name="NBANDSO">    -1</i>
   <i type="int" name="NBANDSV">    -1</i>
   <i type="int" name="NELM">    40</i>
   <i type="int" name="NELMHF">     1</i>
   <i type="int" name="DIM">     3</i>
   <i type="int" name="ANTIRES">     0</i>
   <i name="OMEGAMAX">    -30.00000000</i>
   <i name="OMEGAMIN">    -30.00000000</i>
   <i name="OMEGATL">   -200.00000000</i>
   <i type="int" name="OMEGAGRID">     0</i>
   <i name="CSHIFT">     -0.10000000</i>
   <i type="logical" name="SELFENERGY"> F  </i>
   <i type="logical" name="LSPECTRAL"> F  </i>
   <i type="logical" name="LSPECTRALGW"> F  </i>
   <i type="logical" name="LSINGLES"> F  </i>
   <i type="logical" name="LFERMIGW"> F  </i>
   <i type="logical" name="ODDONLYGW"> F  </i>
   <i type="logical" name="EVENONLYGW"> F  </i>
   <i type="int" name="NKREDLFX">     1</i>
   <i type="int" name="NKREDLFY">     1</i>
   <i type="int" name="NKREDLFZ">     1</i>
   <i type="int" name="MAXMEM">  1800</i>
   <i type="int" name="TELESCOPE">     0</i>
   <i type="int" name="TAUPAR">     1</i>
   <i type="int" name="OMEGAPAR">    -1</i>
   <i name="LAMBDA">      1.00000000</i>
  </separator>
  <separator name="External order field" >
   <i name="OFIELD_KAPPA">      0.00000000</i>
   <v name="OFIELD_K">      0.00000000      0.00000000      0.00000000</v>
   <i name="OFIELD_Q6_NEAR">      0.00000000</i>
   <i name="OFIELD_Q6_FAR">      0.00000000</i>
   <i name="OFIELD_A">      0.00000000</i>
  </separator>
 </parameters>
 <atominfo>
  <atoms>     148 </atoms>
  <types>       4 </types>
  <array name="atoms" >
   <dimension dim="1">ion</dimension>
   <field type="string">element</field>
   <field type="int">atomtype</field>
   <set>
    <rc><c>Sr</c><c>   1</c></rc>
    <rc><c>Sr</c><c>   1</c></rc>
    <rc><c>Sr</c><c>   1</c></rc>
    <rc><c>Sr</c><c>   1</c></rc>
    <rc><c>Sr</c><c>   1</c></rc>
    <rc><c>Sr</c><c>   1</c></rc>
    <rc><c>Sr</c><c>   1</c></rc>
    <rc><c>Sr</c><c>   1</c></rc>
    <rc><c>Sr</c><c>   1</c></rc>
    <rc><c>Sr</c><c>   1</c></rc>
    <rc><c>Sr</c><c>   1</c></rc>
    <rc><c>Sr</c><c>   1</c></rc>
    <rc><c>Sr</c><c>   1</c></rc>
    <rc><c>Sr</c><c>   1</c></rc>
    <rc><c>Sr</c><c>   1</c></rc>
    <rc><c>Sr</c><c>   1</c></rc>
    <rc><c>Sr</c><c>   1</c></rc>
    <rc><c>Sr</c><c>   1</c></rc>
    <rc><c>Sr</c><c>   1</c></rc>
    <rc><c>Sr</c><c>   1</c></rc>
    <rc><c>Sr</c><c>   1</c></rc>
    <rc><c>Sr</c><c>   1</c></rc>
    <rc><c>Sr</c><c>   1</c></rc>
    <rc><c>Sr</c><c>   1</c></rc>
    <rc><c>Sr</c><c>   1</c></rc>
    <rc><c>Sr</c><c>   1</c></rc>
    <rc><c>Sr</c><c>   1</c></rc>
    <rc><c>Sr</c><c>   1</c></rc>
    <rc><c>Sr</c><c>   1</c></rc>
    <rc><c>Sr</c><c>   1</c></rc>
    <rc><c>Sr</c><c>   1</c></rc>
    <rc><c>Sr</c><c>   1</c></rc>
    <rc><c>Ti</c><c>   2</c></rc>
    <rc><c>Ti</c><c>   2</c></rc>
    <rc><c>Ti</c><c>   2</c></rc>
    <rc><c>Ti</c><c>   2</c></rc>
    <rc><c>Ti</c><c>   2</c></rc>
    <rc><c>Ti</c><c>   2</c></rc>
    <rc><c>Ti</c><c>   2</c></rc>
    <rc><c>Ti</c><c>   2</c></rc>
    <rc><c>Fe</c><c>   3</c></rc>
    <rc><c>Fe</c><c>   3</c></rc>
    <rc><c>Fe</c><c>   3</c></rc>
    <rc><c>Fe</c><c>   3</c></rc>
    <rc><c>Fe</c><c>   3</c></rc>
    <rc><c>Fe</c><c>   3</c></rc>
    <rc><c>Fe</c><c>   3</c></rc>
    <rc><c>Fe</c><c>   3</c></rc>
    <rc><c>Fe</c><c>   3</c></rc>
    <rc><c>Fe</c><c>   3</c></rc>
    <rc><c>Fe</c><c>   3</c></rc>
    <rc><c>Fe</c><c>   3</c></rc>
    <rc><c>Fe</c><c>   3</c></rc>
    <rc><c>Fe</c><c>   3</c></rc>
    <rc><c>Fe</c><c>   3</c></rc>
    <rc><c>Fe</c><c>   3</c></rc>
    <rc><c>Fe</c><c>   3</c></rc>
    <rc><c>Fe</c><c>   3</c></rc>
    <rc><c>Fe</c><c>   3</c></rc>
    <rc><c>Fe</c><c>   3</c></rc>
    <rc><c>Fe</c><c>   3</c></rc>
    <rc><c>Fe</c><c>   3</c></rc>
    <rc><c>Fe</c><c>   3</c></rc>
    <rc><c>Fe</c><c>   3</c></rc>
    <rc><c>O </c><c>   4</c></rc>
    <rc><c>O </c><c>   4</c></rc>
    <rc><c>O </c><c>   4</c></rc>
    <rc><c>O </c><c>   4</c></rc>
    <rc><c>O </c><c>   4</c></rc>
    <rc><c>O </c><c>   4</c></rc>
    <rc><c>O </c><c>   4</c></rc>
    <rc><c>O </c><c>   4</c></rc>
    <rc><c>O </c><c>   4</c></rc>
    <rc><c>O </c><c>   4</c></rc>
    <rc><c>O </c><c>   4</c></rc>
    <rc><c>O </c><c>   4</c></rc>
    <rc><c>O </c><c>   4</c></rc>
    <rc><c>O </c><c>   4</c></rc>
    <rc><c>O </c><c>   4</c></rc>
    <rc><c>O </c><c>   4</c></rc>
    <rc><c>O </c><c>   4</c></rc>
    <rc><c>O </c><c>   4</c></rc>
    <rc><c>O </c><c>   4</c></rc>
    <rc><c>O </c><c>   4</c></rc>
    <rc><c>O </c><c>   4</c></rc>
    <rc><c>O </c><c>   4</c></rc>
    <rc><c>O </c><c>   4</c></rc>
    <rc><c>O </c><c>   4</c></rc>
    <rc><c>O </c><c>   4</c></rc>
    <rc><c>O </c><c>   4</c></rc>
    <rc><c>O </c><c>   4</c></rc>
    <rc><c>O </c><c>   4</c></rc>
    <rc><c>O </c><c>   4</c></rc>
    <rc><c>O </c><c>   4</c></rc>
    <rc><c>O </c><c>   4</c></rc>
    <rc><c>O </c><c>   4</c></rc>
    <rc><c>O </c><c>   4</c></rc>
    <rc><c>O </c><c>   4</c></rc>
    <rc><c>O </c><c>   4</c></rc>
    <rc><c>O </c><c>   4</c></rc>
    <rc><c>O </c><c>   4</c></rc>
    <rc><c>O </c><c>   4</c></rc>
    <rc><c>O </c><c>   4</c></rc>
    <rc><c>O </c><c>   4</c></rc>
    <rc><c>O </c><c>   4</c></rc>
    <rc><c>O </c><c>   4</c></rc>
    <rc><c>O </c><c>   4</c></rc>
    <rc><c>O </c><c>   4</c></rc>
    <rc><c>O </c><c>   4</c></rc>
    <rc><c>O </c><c>   4</c></rc>
    <rc><c>O </c><c>   4</c></rc>
    <rc><c>O </c><c>   4</c></rc>
    <rc><c>O </c><c>   4</c></rc>
    <rc><c>O </c><c>   4</c></rc>
    <rc><c>O </c><c>   4</c></rc>
    <rc><c>O </c><c>   4</c></rc>
    <rc><c>O </c><c>   4</c></rc>
    <rc><c>O </c><c>   4</c></rc>
    <rc><c>O </c><c>   4</c></rc>
    <rc><c>O </c><c>   4</c></rc>
    <rc><c>O </c><c>   4</c></rc>
    <rc><c>O </c><c>   4</c></rc>
    <rc><c>O </c><c>   4</c></rc>
    <rc><c>O </c><c>   4</c></rc>
    <rc><c>O </c><c>   4</c></rc>
    <rc><c>O </c><c>   4</c></rc>
    <rc><c>O </c><c>   4</c></rc>
    <rc><c>O </c><c>   4</c></rc>
    <rc><c>O </c><c>   4</c></rc>
    <rc><c>O </c><c>   4</c></rc>
    <rc><c>O </c><c>   4</c></rc>
    <rc><c>O </c><c>   4</c></rc>
    <rc><c>O </c><c>   4</c></rc>
    <rc><c>O </c><c>   4</c></rc>
    <rc><c>O </c><c>   4</c></rc>
    <rc><c>O </c><c>   4</c></rc>
    <rc><c>O </c><c>   4</c></rc>
    <rc><c>O </c><c>   4</c></rc>
    <rc><c>O </c><c>   4</c></rc>
    <rc><c>O </c><c>   4</c></rc>
    <rc><c>O </c><c>   4</c></rc>
    <rc><c>O </c><c>   4</c></rc>
    <rc><c>O </c><c>   4</c></rc>
    <rc><c>O </c><c>   4</c></rc>
    <rc><c>O </c><c>   4</c></rc>
    <rc><c>O </c><c>   4</c></rc>
    <rc><c>O </c><c>   4</c></rc>
    <rc><c>O </c><c>   4</c></rc>
   </set>
  </array>
  <array name="atomtypes" >
   <dimension dim="1">type</dimension>
   <field type="int">atomspertype</field>
   <field type="string">element</field>
   <field>mass</field>
   <field>valence</field>
   <field type="string">pseudopotential</field>
   <set>
    <rc><c>  32</c><c>Sr</c><c>     87.62000000</c><c>     10.00000000</c><c>  PAW_PBE Sr_sv 07Sep2000               </c></rc>
    <rc><c>   8</c><c>Ti</c><c>     47.88000000</c><c>      4.00000000</c><c>  PAW_PBE Ti 08Apr2002                  </c></rc>
    <rc><c>  24</c><c>Fe</c><c>     55.84700000</c><c>      8.00000000</c><c>  PAW_PBE Fe 06Sep2000                  </c></rc>
    <rc><c>  84</c><c>O </c><c>     16.00000000</c><c>      6.00000000</c><c>  PAW_PBE O 08Apr2002                   </c></rc>
   </set>
  </array>
 </atominfo>
 <structure name="initialpos" >
  <crystal>
   <varray name="basis" >
    <v>      11.24651820      -0.01767278       0.05218410 </v>
    <v>      -0.01769342      11.25845351      -0.06488192 </v>
    <v>       0.07488615      -0.09288008      15.85809849 </v>
   </varray>
   <i name="volume">   2007.81053637 </i>
   <varray name="rec_basis" >
    <v>       0.08891857       0.00013733      -0.00041909 </v>
    <v>       0.00013717       0.08882536       0.00051960 </v>
    <v>      -0.00029204       0.00036297       0.06306277 </v>
   </varray>
  </crystal>
  <varray name="positions" >
   <v>       0.00234816       0.25819078       0.12921823 </v>
   <v>       0.00545885       0.26097199       0.61843140 </v>
   <v>       0.98804726       0.74108017       0.13328931 </v>
   <v>       0.99358412       0.74647486       0.60497087 </v>
   <v>       0.48049819       0.24270743       0.13004372 </v>
   <v>       0.48603824       0.24692713       0.61877705 </v>
   <v>       0.50594415       0.76567152       0.12777726 </v>
   <v>       0.49976870       0.74495269       0.60883109 </v>
   <v>       0.99938944       0.25965930       0.37664152 </v>
   <v>       0.01044747       0.25534403       0.87364670 </v>
   <v>       0.99581798       0.73669705       0.37650591 </v>
   <v>       0.01702250       0.72828697       0.88139485 </v>
   <v>       0.49575748       0.25501161       0.38809674 </v>
   <v>       0.48873680       0.22437776       0.86763869 </v>
   <v>       0.50133212       0.73478118       0.38107620 </v>
   <v>       0.50605156       0.76818297       0.88466778 </v>
   <v>       0.24366638       0.01744429       0.13074487 </v>
   <v>       0.23235875       0.01535100       0.60685662 </v>
   <v>       0.22857143       0.49204556       0.12923470 </v>
   <v>       0.24485809       0.49677985       0.61533326 </v>
   <v>       0.75375832       0.00032246       0.12434636 </v>
   <v>       0.76165327       0.00123514       0.61375179 </v>
   <v>       0.76503618       0.50705511       0.13263706 </v>
   <v>       0.75815974       0.50692211       0.61881038 </v>
   <v>       0.24892588       0.01185121       0.37366713 </v>
   <v>       0.24270526       0.01767567       0.88004192 </v>
   <v>       0.24129709       0.49508158       0.37786797 </v>
   <v>       0.23684579       0.47519547       0.88161173 </v>
   <v>       0.75279261       0.00096772       0.37439928 </v>
   <v>       0.75347331       0.98956717       0.88179551 </v>
   <v>       0.75758407       0.49494854       0.38862725 </v>
   <v>       0.77929579       0.49902133       0.87029380 </v>
   <v>       0.00287945       0.99651720       0.99547036 </v>
   <v>       0.49572239       0.00090025       0.00366647 </v>
   <v>       0.50168192       0.99781896       0.48714632 </v>
   <v>       0.51371793       0.49185224       0.97232109 </v>
   <v>       0.75390232       0.24039498       0.98159269 </v>
   <v>       0.75136004       0.75102742       0.00098128 </v>
   <v>       0.24503251       0.75774297       0.25019362 </v>
   <v>       0.25326692       0.77906207       0.73677248 </v>
   <v>       0.99860409       0.99952529       0.50341102 </v>
   <v>       0.00319302       0.49919630       0.00376906 </v>
   <v>       0.00008565       0.50049004       0.49882767 </v>
   <v>       0.50181020       0.49829001       0.50450594 </v>
   <v>       0.24098821       0.24562576       0.00328050 </v>
   <v>       0.24697544       0.25459426       0.49738412 </v>
   <v>       0.23912600       0.76022896       0.02095618 </v>
   <v>       0.25005589       0.74832901       0.49068273 </v>
   <v>       0.74958874       0.24924900       0.50546858 </v>
   <v>       0.74607017       0.75161029       0.50045180 </v>
   <v>       0.24118367       0.25292607       0.25338735 </v>
   <v>       0.24175260       0.24281586       0.74438562 </v>
   <v>       0.74621415       0.24737390       0.26028985 </v>
   <v>       0.74057609       0.25643467       0.74169399 </v>
   <v>       0.75625980       0.74056655       0.25578519 </v>
   <v>       0.78288731       0.75755127       0.75117949 </v>
   <v>       0.99402293       0.00202086       0.23733322 </v>
   <v>       0.00307430       0.99829872       0.75194507 </v>
   <v>       0.99631831       0.49483925       0.25246883 </v>
   <v>       0.99825645       0.48487467       0.74862334 </v>
   <v>       0.48888244       0.01371290       0.24914751 </v>
   <v>       0.49034082       0.00884467       0.75391968 </v>
   <v>       0.52279216       0.48252770       0.25875285 </v>
   <v>       0.49565578       0.47154103       0.75156258 </v>
   <v>       0.12022636       0.11803870       0.26143957 </v>
   <v>       0.09286838       0.14367875       0.74746846 </v>
   <v>       0.12596793       0.63046220       0.24885464 </v>
   <v>       0.21444876       0.64748456       0.79445008 </v>
   <v>       0.63396938       0.10772022       0.23977375 </v>
   <v>       0.61454379       0.12742931       0.73394637 </v>
   <v>       0.59596377       0.63566434       0.23795168 </v>
   <v>       0.37390627       0.41990453       0.23498289 </v>
   <v>       0.39034174       0.34590803       0.75342777 </v>
   <v>       0.39299758       0.86413485       0.25330674 </v>
   <v>       0.41319088       0.83754165       0.75070583 </v>
   <v>       0.86666067       0.36897508       0.24149740 </v>
   <v>       0.88808477       0.35379760       0.75463008 </v>
   <v>       0.87752364       0.87786472       0.26524620 </v>
   <v>       0.84594335       0.92447364       0.75122519 </v>
   <v>       0.37628789       0.13647785       0.25603151 </v>
   <v>       0.34315768       0.09516429       0.73528710 </v>
   <v>       0.87383363       0.12524966       0.24383820 </v>
   <v>       0.86756204       0.61949705       0.25499947 </v>
   <v>       0.89142676       0.61892299       0.75678325 </v>
   <v>       0.12102508       0.37296539       0.25019289 </v>
   <v>       0.14028160       0.39154736       0.74835667 </v>
   <v>       0.13407714       0.87979379       0.25223059 </v>
   <v>       0.12965360       0.88222111       0.76979995 </v>
   <v>       0.62671412       0.36404647       0.20879363 </v>
   <v>       0.64746452       0.40045332       0.75359924 </v>
   <v>       0.38012673       0.41896158       0.01598957 </v>
   <v>       0.37848822       0.37596302       0.50736358 </v>
   <v>       0.37523023       0.87009444       0.99261906 </v>
   <v>       0.37636209       0.87840360       0.50815635 </v>
   <v>       0.85536492       0.37076954       0.00910093 </v>
   <v>       0.87384692       0.37710688       0.50373912 </v>
   <v>       0.87241148       0.86887123       0.98931434 </v>
   <v>       0.87620344       0.87299709       0.49133600 </v>
   <v>       0.12514989       0.11755498       0.00584993 </v>
   <v>       0.12098329       0.12411752       0.48615769 </v>
   <v>       0.13085185       0.62538576       0.99940493 </v>
   <v>       0.12219160       0.62905500       0.49412208 </v>
   <v>       0.62556089       0.13800370       0.01918010 </v>
   <v>       0.61724149       0.12238214       0.51333401 </v>
   <v>       0.59571197       0.62281203       0.01827777 </v>
   <v>       0.62495295       0.62348974       0.50341860 </v>
   <v>       0.12002028       0.36883219       0.00396727 </v>
   <v>       0.12424962       0.37987749       0.49893696 </v>
   <v>       0.12281625       0.87657890       0.97495235 </v>
   <v>       0.12349647       0.87892094       0.47437574 </v>
   <v>       0.62153459       0.37036032       0.95861701 </v>
   <v>       0.62356751       0.37529043       0.52745264 </v>
   <v>       0.62636670       0.87669292       0.00464147 </v>
   <v>       0.62038865       0.88109226       0.51842930 </v>
   <v>       0.37945252       0.12985277       0.99927416 </v>
   <v>       0.37675727       0.12002205       0.49914444 </v>
   <v>       0.37685350       0.62368336       0.50054905 </v>
   <v>       0.86853036       0.12552662       0.01908157 </v>
   <v>       0.87677403       0.11632263       0.47787171 </v>
   <v>       0.86404484       0.62276472       0.00067219 </v>
   <v>       0.87284987       0.62637766       0.49670843 </v>
   <v>       0.00401644       0.97422275       0.11965185 </v>
   <v>       0.00345721       0.99155445       0.62422981 </v>
   <v>       0.99502610       0.50393827       0.12606792 </v>
   <v>       0.00896675       0.51107833       0.62852215 </v>
   <v>       0.49003877       0.99335200       0.12627500 </v>
   <v>       0.48110021       0.53797355       0.64770855 </v>
   <v>       0.98275818       0.02704484       0.87592253 </v>
   <v>       0.99658600       0.49498438       0.37415651 </v>
   <v>       0.00421227       0.49497767       0.87722718 </v>
   <v>       0.52022098       0.98811865       0.37094750 </v>
   <v>       0.52021994       0.99869496       0.87971534 </v>
   <v>       0.52311681       0.48190078       0.37716370 </v>
   <v>       0.47052958       0.54651420       0.86386678 </v>
   <v>       0.25903627       0.26318429       0.37491786 </v>
   <v>       0.25224646       0.24504691       0.87787056 </v>
   <v>       0.27594205       0.72549584       0.36623199 </v>
   <v>       0.72457966       0.26198349       0.37838699 </v>
   <v>       0.76823211       0.21222293       0.86576737 </v>
   <v>       0.72031096       0.76415252       0.37205616 </v>
   <v>       0.72551820       0.73878405       0.87291560 </v>
   <v>       0.24940691       0.24442460       0.12850215 </v>
   <v>       0.24165691       0.24715225       0.61941738 </v>
   <v>       0.29469855       0.70950219       0.13437704 </v>
   <v>       0.23202233       0.75327627       0.62306703 </v>
   <v>       0.78440083       0.22359580       0.62850041 </v>
   <v>       0.75024436       0.76526108       0.13006862 </v>
   <v>       0.74645071       0.74541720       0.63222506 </v>
  </varray>
 </structure>
 <calculation>
  <scstep>
   <time name="dav">  608.21  608.25</time>
   <time name="total">  615.45  615.54</time>
   <energy>
    <i name="alphaZ">   5596.85133175 </i>
    <i name="ewald"> -61808.46273428 </i>
    <i name="hartreedc"> -19846.35142103 </i>
    <i name="XCdc">   3403.01256981 </i>
    <i name="pawpsdc"> 117729.53983115 </i>
    <i name="pawaedc">-117229.86426792 </i>
    <i name="eentropy">     -0.01558147 </i>
    <i name="bandstr">  -7150.16989870 </i>
    <i name="atom">  78316.90445604 </i>
    <i name="e_fr_energy">   -988.55571463 </i>
    <i name="e_wo_entrp">   -988.54013317 </i>
    <i name="e_0_energy">   -988.54792390 </i>
   </energy>
  </scstep>
  <scstep>
   <time name="diag">   64.94   64.97</time>
   <time name="diis">   64.10   64.11</time>
   <time name="orth">   33.46   33.46</time>
   <time name="total">  169.82  169.98</time>
   <energy>
    <i name="e_fr_energy">   -988.55571858 </i>
    <i name="e_wo_entrp">   -988.54013763 </i>
    <i name="e_0_energy">   -988.54792811 </i>
   </energy>
  </scstep>
  <scstep>
   <time name="diag">   64.88   64.88</time>
   <time name="diis">   61.75   61.76</time>
   <time name="orth">   33.47   33.48</time>
   <time name="total">  167.40  167.47</time>
   <energy>
    <i name="e_fr_energy">   -988.55571948 </i>
    <i name="e_wo_entrp">   -988.54014330 </i>
    <i name="e_0_energy">   -988.54793139 </i>
   </energy>
  </scstep>
  <scstep>
   <time name="diag">   64.90   64.90</time>
   <time name="diis">   55.44   55.46</time>
   <time name="orth">   33.42   33.42</time>
   <time name="total">  161.08  161.14</time>
   <energy>
    <i name="e_fr_energy">   -988.55572167 </i>
    <i name="e_wo_entrp">   -988.54014576 </i>
    <i name="e_0_energy">   -988.54793371 </i>
   </energy>
  </scstep>
  <scstep>
   <time name="diag">   64.85   64.85</time>
   <time name="diis">   53.73   53.74</time>
   <time name="orth">   33.46   33.46</time>
   <time name="total">  159.37  159.48</time>
   <energy>
    <i name="e_fr_energy">   -988.55572343 </i>
    <i name="e_wo_entrp">   -988.54014671 </i>
    <i name="e_0_energy">   -988.54793507 </i>
   </energy>
  </scstep>
  <scstep>
   <time name="diag">   64.89   64.90</time>
   <time name="diis">   50.55   50.57</time>
   <time name="orth">   33.42   33.42</time>
   <time name="total">  156.19  156.29</time>
   <energy>
    <i name="e_fr_energy">   -988.55572583 </i>
    <i name="e_wo_entrp">   -988.54014849 </i>
    <i name="e_0_energy">   -988.54793716 </i>
   </energy>
  </scstep>
  <scstep>
   <time name="diag">   64.97   64.98</time>
   <time name="diis">   48.92   48.92</time>
   <time name="orth">   33.43   33.44</time>
   <time name="total">  154.58  154.62</time>
   <energy>
    <i name="e_fr_energy">   -988.55572838 </i>
    <i name="e_wo_entrp">   -988.54015093 </i>
    <i name="e_0_energy">   -988.54793965 </i>
   </energy>
  </scstep>
  <scstep>
   <time name="diag">   64.98   64.98</time>
   <time name="diis">   49.93   49.94</time>
   <time name="orth">   33.43   33.43</time>
   <time name="total">  149.40  149.44</time>
   <energy>
    <i name="alphaZ">   5596.85133175 </i>
    <i name="ewald"> -61808.46273428 </i>
    <i name="hartreedc"> -19846.35543099 </i>
    <i name="XCdc">   3403.01255177 </i>
    <i name="pawpsdc"> 117729.38052094 </i>
    <i name="pawaedc">-117229.68681953 </i>
    <i name="eentropy">     -0.01557751 </i>
    <i name="bandstr">  -7150.18403015 </i>
    <i name="atom">  78316.90445604 </i>
    <i name="e_fr_energy">   -988.55573195 </i>
    <i name="e_wo_entrp">   -988.54015444 </i>
    <i name="e_0_energy">   -988.54794319 </i>
   </energy>
  </scstep>
  <structure>
   <crystal>
    <varray name="basis" >
     <v>      11.24651820      -0.01767278       0.05218410 </v>
     <v>      -0.01769342      11.25845351      -0.06488192 </v>
     <v>       0.07488615      -0.09288008      15.85809849 </v>
    </varray>
    <i name="volume">   2007.81053637 </i>
    <varray name="rec_basis" >
     <v>       0.08891857       0.00013733      -0.00041909 </v>
     <v>       0.00013717       0.08882536       0.00051960 </v>
     <v>      -0.00029204       0.00036297       0.06306277 </v>
    </varray>
   </crystal>
   <varray name="positions" >
    <v>       0.00234816       0.25819078       0.12921823 </v>
    <v>       0.00545885       0.26097199       0.61843140 </v>
    <v>       0.98804726       0.74108017       0.13328931 </v>
    <v>       0.99358412       0.74647486       0.60497087 </v>
    <v>       0.48049819       0.24270743       0.13004372 </v>
    <v>       0.48603824       0.24692713       0.61877705 </v>
    <v>       0.50594415       0.76567152       0.12777726 </v>
    <v>       0.49976870       0.74495269       0.60883109 </v>
    <v>       0.99938944       0.25965930       0.37664152 </v>
    <v>       0.01044747       0.25534403       0.87364670 </v>
    <v>       0.99581798       0.73669705       0.37650591 </v>
    <v>       0.01702250       0.72828697       0.88139485 </v>
    <v>       0.49575748       0.25501161       0.38809674 </v>
    <v>       0.48873680       0.22437776       0.86763869 </v>
    <v>       0.50133212       0.73478118       0.38107620 </v>
    <v>       0.50605156       0.76818297       0.88466778 </v>
    <v>       0.24366638       0.01744429       0.13074487 </v>
    <v>       0.23235875       0.01535100       0.60685662 </v>
    <v>       0.22857143       0.49204556       0.12923470 </v>
    <v>       0.24485809       0.49677985       0.61533326 </v>
    <v>       0.75375832       0.00032246       0.12434636 </v>
    <v>       0.76165327       0.00123514       0.61375179 </v>
    <v>       0.76503618       0.50705511       0.13263706 </v>
    <v>       0.75815974       0.50692211       0.61881038 </v>
    <v>       0.24892588       0.01185121       0.37366713 </v>
    <v>       0.24270526       0.01767567       0.88004192 </v>
    <v>       0.24129709       0.49508158       0.37786797 </v>
    <v>       0.23684579       0.47519547       0.88161173 </v>
    <v>       0.75279261       0.00096772       0.37439928 </v>
    <v>       0.75347331       0.98956717       0.88179551 </v>
    <v>       0.75758407       0.49494854       0.38862725 </v>
    <v>       0.77929579       0.49902133       0.87029380 </v>
    <v>       0.00287945       0.99651720       0.99547036 </v>
    <v>       0.49572239       0.00090025       0.00366647 </v>
    <v>       0.50168192       0.99781896       0.48714632 </v>
    <v>       0.51371793       0.49185224       0.97232109 </v>
    <v>       0.75390232       0.24039498       0.98159269 </v>
    <v>       0.75136004       0.75102742       0.00098128 </v>
    <v>       0.24503251       0.75774297       0.25019362 </v>
    <v>       0.25326692       0.77906207       0.73677248 </v>
    <v>       0.99860409       0.99952529       0.50341102 </v>
    <v>       0.00319302       0.49919630       0.00376906 </v>
    <v>       0.00008565       0.50049004       0.49882767 </v>
    <v>       0.50181020       0.49829001       0.50450594 </v>
    <v>       0.24098821       0.24562576       0.00328050 </v>
    <v>       0.24697544       0.25459426       0.49738412 </v>
    <v>       0.23912600       0.76022896       0.02095618 </v>
    <v>       0.25005589       0.74832901       0.49068273 </v>
    <v>       0.74958874       0.24924900       0.50546858 </v>
    <v>       0.74607017       0.75161029       0.50045180 </v>
    <v>       0.24118367       0.25292607       0.25338735 </v>
    <v>       0.24175260       0.24281586       0.74438562 </v>
    <v>       0.74621415       0.24737390       0.26028985 </v>
    <v>       0.74057609       0.25643467       0.74169399 </v>
    <v>       0.75625980       0.74056655       0.25578519 </v>
    <v>       0.78288731       0.75755127       0.75117949 </v>
    <v>       0.99402293       0.00202086       0.23733322 </v>
    <v>       0.00307430       0.99829872       0.75194507 </v>
    <v>       0.99631831       0.49483925       0.25246883 </v>
    <v>       0.99825645       0.48487467       0.74862334 </v>
    <v>       0.48888244       0.01371290       0.24914751 </v>
    <v>       0.49034082       0.00884467       0.75391968 </v>
    <v>       0.52279216       0.48252770       0.25875285 </v>
    <v>       0.49565578       0.47154103       0.75156258 </v>
    <v>       0.12022636       0.11803870       0.26143957 </v>
    <v>       0.09286838       0.14367875       0.74746846 </v>
    <v>       0.12596793       0.63046220       0.24885464 </v>
    <v>       0.21444876       0.64748456       0.79445008 </v>
    <v>       0.63396938       0.10772022       0.23977375 </v>
    <v>       0.61454379       0.12742931       0.73394637 </v>
    <v>       0.59596377       0.63566434       0.23795168 </v>
    <v>       0.37390627       0.41990453       0.23498289 </v>
    <v>       0.39034174       0.34590803       0.75342777 </v>
    <v>       0.39299758       0.86413485       0.25330674 </v>
    <v>       0.41319088       0.83754165       0.75070583 </v>
    <v>       0.86666067       0.36897508       0.24149740 </v>
    <v>       0.88808477       0.35379760       0.75463008 </v>
    <v>       0.87752364       0.87786472       0.26524620 </v>
    <v>       0.84594335       0.92447364       0.75122519 </v>
    <v>       0.37628789       0.13647785       0.25603151 </v>
    <v>       0.34315768       0.09516429       0.73528710 </v>
    <v>       0.87383363       0.12524966       0.24383820 </v>
    <v>       0.86756204       0.61949705       0.25499947 </v>
    <v>       0.89142676       0.61892299       0.75678325 </v>
    <v>       0.12102508       0.37296539       0.25019289 </v>
    <v>       0.14028160       0.39154736       0.74835667 </v>
    <v>       0.13407714       0.87979379       0.25223059 </v>
    <v>       0.12965360       0.88222111       0.76979995 </v>
    <v>       0.62671412       0.36404647       0.20879363 </v>
    <v>       0.64746452       0.40045332       0.75359924 </v>
    <v>       0.38012673       0.41896158       0.01598957 </v>
    <v>       0.37848822       0.37596302       0.50736358 </v>
    <v>       0.37523023       0.87009444       0.99261906 </v>
    <v>       0.37636209       0.87840360       0.50815635 </v>
    <v>       0.85536492       0.37076954       0.00910093 </v>
    <v>       0.87384692       0.37710688       0.50373912 </v>
    <v>       0.87241148       0.86887123       0.98931434 </v>
    <v>       0.87620344       0.87299709       0.49133600 </v>
    <v>       0.12514989       0.11755498       0.00584993 </v>
    <v>       0.12098329       0.12411752       0.48615769 </v>
    <v>       0.13085185       0.62538576       0.99940493 </v>
    <v>       0.12219160       0.62905500       0.49412208 </v>
    <v>       0.62556089       0.13800370       0.01918010 </v>
    <v>       0.61724149       0.12238214       0.51333401 </v>
    <v>       0.59571197       0.62281203       0.01827777 </v>
    <v>       0.62495295       0.62348974       0.50341860 </v>
    <v>       0.12002028       0.36883219       0.00396727 </v>
    <v>       0.12424962       0.37987749       0.49893696 </v>
    <v>       0.12281625       0.87657890       0.97495235 </v>
    <v>       0.12349647       0.87892094       0.47437574 </v>
    <v>       0.62153459       0.37036032       0.95861701 </v>
    <v>       0.62356751       0.37529043       0.52745264 </v>
    <v>       0.62636670       0.87669292       0.00464147 </v>
    <v>       0.62038865       0.88109226       0.51842930 </v>
    <v>       0.37945252       0.12985277       0.99927416 </v>
    <v>       0.37675727       0.12002205       0.49914444 </v>
    <v>       0.37685350       0.62368336       0.50054905 </v>
    <v>       0.86853036       0.12552662       0.01908157 </v>
    <v>       0.87677403       0.11632263       0.47787171 </v>
    <v>       0.86404484       0.62276472       0.00067219 </v>
    <v>       0.87284987       0.62637766       0.49670843 </v>
    <v>       0.00401644       0.97422275       0.11965185 </v>
    <v>       0.00345721       0.99155445       0.62422981 </v>
    <v>       0.99502610       0.50393827       0.12606792 </v>
    <v>       0.00896675       0.51107833       0.62852215 </v>
    <v>       0.49003877       0.99335200       0.12627500 </v>
    <v>       0.48110021       0.53797355       0.64770855 </v>
    <v>       0.98275818       0.02704484       0.87592253 </v>
    <v>       0.99658600       0.49498438       0.37415651 </v>
    <v>       0.00421227       0.49497767       0.87722718 </v>
    <v>       0.52022098       0.98811865       0.37094750 </v>
    <v>       0.52021994       0.99869496       0.87971534 </v>
    <v>       0.52311681       0.48190078       0.37716370 </v>
    <v>       0.47052958       0.54651420       0.86386678 </v>
    <v>       0.25903627       0.26318429       0.37491786 </v>
    <v>       0.25224646       0.24504691       0.87787056 </v>
    <v>       0.27594205       0.72549584       0.36623199 </v>
    <v>       0.72457966       0.26198349       0.37838699 </v>
    <v>       0.76823211       0.21222293       0.86576737 </v>
    <v>       0.72031096       0.76415252       0.37205616 </v>
    <v>       0.72551820       0.73878405       0.87291560 </v>
    <v>       0.24940691       0.24442460       0.12850215 </v>
    <v>       0.24165691       0.24715225       0.61941738 </v>
    <v>       0.29469855       0.70950219       0.13437704 </v>
    <v>       0.23202233       0.75327627       0.62306703 </v>
    <v>       0.78440083       0.22359580       0.62850041 </v>
    <v>       0.75024436       0.76526108       0.13006862 </v>
    <v>       0.74645071       0.74541720       0.63222506 </v>
   </varray>
  </structure>
  <varray name="forces" >
   <v>      -0.01191200      -0.02532101      -0.01108390 </v>
   <v>       0.00041045       0.00413290      -0.00972907 </v>
   <v>       0.00672276      -0.01893990       0.00050326 </v>
   <v>       0.00644313      -0.00405348       0.01669659 </v>
   <v>      -0.03753080       0.03161056       0.00414022 </v>
   <v>      -0.00691338       0.01889564      -0.02590630 </v>
   <v>       0.00694337       0.00618755       0.01175393 </v>
   <v>       0.00632200       0.00172342      -0.00731507 </v>
   <v>      -0.00634274      -0.00726468       0.00644985 </v>
   <v>       0.00625478      -0.01774011       0.00123698 </v>
   <v>      -0.00379110      -0.00573224       0.01986261 </v>
   <v>      -0.02544855       0.03969716      -0.00967395 </v>
   <v>      -0.02542545      -0.00531215      -0.01596687 </v>
   <v>       0.01779307      -0.02938257       0.00746230 </v>
   <v>       0.00453802      -0.00581774      -0.02661696 </v>
   <v>       0.01704972      -0.00441666       0.02087836 </v>
   <v>      -0.00107563       0.00525834      -0.00501225 </v>
   <v>      -0.00791042       0.02784029      -0.03855347 </v>
   <v>      -0.01406096      -0.01107011      -0.01515073 </v>
   <v>      -0.00672542      -0.00317381      -0.02070203 </v>
   <v>       0.00150565       0.00289777       0.01780573 </v>
   <v>      -0.02898322      -0.00955748      -0.01971362 </v>
   <v>      -0.01586805      -0.00769087      -0.01763453 </v>
   <v>       0.01239970       0.00525965      -0.02369793 </v>
   <v>       0.00360110      -0.01620393       0.02225824 </v>
   <v>      -0.01201375       0.01214717       0.01009835 </v>
   <v>       0.00261288      -0.00583758      -0.00645552 </v>
   <v>      -0.02221656      -0.02126770      -0.01120616 </v>
   <v>      -0.01552538      -0.00464119       0.00519649 </v>
   <v>      -0.01612175       0.02556608       0.01936708 </v>
   <v>       0.01199561       0.00744691      -0.00602108 </v>
   <v>       0.03572606       0.01534983       0.01545940 </v>
   <v>       0.02899062      -0.02032997      -0.03681098 </v>
   <v>       0.01141953      -0.00890847      -0.03464687 </v>
   <v>       0.01000406      -0.01220662       0.01295890 </v>
   <v>       0.05445472       0.07167525       0.01871878 </v>
   <v>       0.00037631      -0.00891927       0.03643082 </v>
   <v>      -0.03018438       0.00871313       0.01888259 </v>
   <v>       0.06442242      -0.02994720      -0.00010460 </v>
   <v>       0.02115079       0.00968319      -0.01084568 </v>
   <v>       0.00252990      -0.02062967      -0.01738162 </v>
   <v>      -0.00825259       0.02890983       0.01086031 </v>
   <v>       0.01709703      -0.00062005       0.00686740 </v>
   <v>      -0.00489867       0.01371678      -0.00056060 </v>
   <v>      -0.00818081      -0.01552967       0.02227502 </v>
   <v>      -0.00413580      -0.01201367      -0.01920865 </v>
   <v>       0.00740363       0.00805102       0.01153953 </v>
   <v>      -0.02599437      -0.00939436       0.00848813 </v>
   <v>       0.02225048      -0.00653718       0.01481909 </v>
   <v>      -0.00245825      -0.00322801       0.00826322 </v>
   <v>      -0.00274462       0.00784687       0.01721397 </v>
   <v>      -0.00330684      -0.02768978      -0.00597738 </v>
   <v>       0.01188292      -0.02816747       0.01134241 </v>
   <v>      -0.00156822      -0.01878732      -0.00199635 </v>
   <v>      -0.01455541       0.02420431      -0.01960113 </v>
   <v>       0.00836485       0.03624815      -0.01956880 </v>
   <v>      -0.04832908      -0.01193917      -0.00271141 </v>
   <v>       0.00107736      -0.00221061       0.02872443 </v>
   <v>       0.02208817      -0.02158114       0.00698220 </v>
   <v>       0.01274073      -0.00773190      -0.00275336 </v>
   <v>      -0.02288492      -0.01218273      -0.01280149 </v>
   <v>      -0.02094038      -0.01563619       0.01478247 </v>
   <v>       0.04013683       0.03106031       0.00582013 </v>
   <v>      -0.02420523       0.01740039      -0.00525708 </v>
   <v>       0.01640750      -0.00394814       0.01662855 </v>
   <v>       0.01251080       0.00115899      -0.02137870 </v>
   <v>       0.00963760      -0.04910717      -0.00881154 </v>
   <v>      -0.03841755       0.00897346       0.00641870 </v>
   <v>       0.00343489       0.01856401       0.00204482 </v>
   <v>      -0.02333919      -0.00937135      -0.00190848 </v>
   <v>      -0.02157572      -0.00705622      -0.01049785 </v>
   <v>      -0.02072732      -0.00528817      -0.01104748 </v>
   <v>       0.01690561      -0.00888456       0.02868946 </v>
   <v>      -0.01217153       0.03577075      -0.00231130 </v>
   <v>      -0.02159609       0.00825617      -0.00357732 </v>
   <v>       0.00463338      -0.00288267       0.01131471 </v>
   <v>       0.01826290       0.04275641      -0.00196075 </v>
   <v>       0.00550796       0.00553926       0.00087403 </v>
   <v>      -0.01396306      -0.00559907      -0.00928609 </v>
   <v>       0.01230397       0.00460072      -0.00528554 </v>
   <v>      -0.02397727       0.00510633       0.00142003 </v>
   <v>      -0.02234518       0.02479629       0.00942472 </v>
   <v>       0.02293962      -0.00195748       0.00099272 </v>
   <v>       0.05160387       0.03244832       0.00063587 </v>
   <v>       0.00946375      -0.01007071      -0.00044217 </v>
   <v>       0.00952130      -0.00496881      -0.01553170 </v>
   <v>      -0.03863324       0.02272788      -0.02042009 </v>
   <v>       0.04102401      -0.01749428      -0.00815089 </v>
   <v>       0.01510301       0.01804461       0.03397172 </v>
   <v>       0.02382492       0.03062815      -0.01273756 </v>
   <v>      -0.02006935      -0.00515863       0.01074727 </v>
   <v>      -0.00121843       0.00858175      -0.00317254 </v>
   <v>       0.02432045      -0.01492993       0.01692605 </v>
   <v>       0.01429706       0.00106512       0.00830396 </v>
   <v>       0.01761735      -0.02385081      -0.00750656 </v>
   <v>      -0.00074527      -0.00156696      -0.00551711 </v>
   <v>       0.01571737       0.00072395       0.00758481 </v>
   <v>      -0.00906433       0.00955479      -0.00944180 </v>
   <v>      -0.00620420       0.00262259       0.01549453 </v>
   <v>       0.00700271      -0.01324872      -0.01235132 </v>
   <v>      -0.00669729      -0.02914023       0.01975871 </v>
   <v>       0.00834256      -0.00139591      -0.00692616 </v>
   <v>       0.00303050      -0.03913338      -0.01290835 </v>
   <v>       0.00451610      -0.01660613      -0.01622252 </v>
   <v>      -0.03043385      -0.01449378      -0.00621941 </v>
   <v>       0.01492955      -0.01811404       0.01712691 </v>
   <v>      -0.00635119      -0.02791179       0.00832810 </v>
   <v>      -0.01212334       0.00617397      -0.00361319 </v>
   <v>      -0.01443819       0.02583607       0.02121656 </v>
   <v>      -0.00176326      -0.01125081       0.01152686 </v>
   <v>       0.00943795      -0.03263166       0.01012955 </v>
   <v>      -0.00530760       0.01074805      -0.01209553 </v>
   <v>       0.00471582       0.00634629       0.01622182 </v>
   <v>      -0.01313918       0.00141657      -0.00214015 </v>
   <v>      -0.00899551      -0.03568947      -0.01350105 </v>
   <v>       0.01360500      -0.00051806       0.00950740 </v>
   <v>       0.00092178      -0.00032153      -0.01753291 </v>
   <v>      -0.01065441       0.00291174      -0.02983332 </v>
   <v>       0.00385071       0.01999924       0.00439748 </v>
   <v>      -0.00880235       0.00419235       0.00130906 </v>
   <v>       0.01160989       0.01279309       0.01530875 </v>
   <v>      -0.01087871       0.02699978      -0.00367415 </v>
   <v>      -0.00175812      -0.01015736      -0.00208691 </v>
   <v>       0.00322779       0.01176443       0.00096614 </v>
   <v>      -0.01629071      -0.02663841       0.00127479 </v>
   <v>       0.02125409       0.00476928      -0.01514582 </v>
   <v>      -0.02886530       0.00860544       0.03765158 </v>
   <v>       0.01302734      -0.00524971       0.01800774 </v>
   <v>      -0.01868714      -0.02906951      -0.01152010 </v>
   <v>       0.00213149       0.02192806      -0.00468157 </v>
   <v>      -0.00536007      -0.00568140       0.01761420 </v>
   <v>       0.00699444      -0.00088761       0.03219016 </v>
   <v>      -0.01475615       0.00748566       0.01497767 </v>
   <v>       0.02653494      -0.02317790      -0.03136148 </v>
   <v>      -0.00790726       0.01457683      -0.00940553 </v>
   <v>      -0.01147662       0.00267012      -0.00320921 </v>
   <v>      -0.00004390       0.02939215      -0.01622035 </v>
   <v>       0.02603776      -0.00716701      -0.01078632 </v>
   <v>      -0.01274922       0.03668771      -0.02154963 </v>
   <v>      -0.00121836      -0.00692838       0.00509067 </v>
   <v>       0.00779551       0.01980515       0.01456027 </v>
   <v>       0.00038795      -0.00565956      -0.01591173 </v>
   <v>       0.00555929       0.01007269       0.01752145 </v>
   <v>       0.00561034       0.00430367       0.01935181 </v>
   <v>       0.00898360      -0.01280042       0.03939002 </v>
   <v>      -0.03664689      -0.00795860      -0.04298340 </v>
   <v>       0.00118920      -0.00132155      -0.01185272 </v>
   <v>       0.00745475       0.01998116      -0.00565468 </v>
  </varray>
  <varray name="stress" >
   <v>       0.04057868      -0.03741231      -0.07992086 </v>
   <v>      -0.03741327       0.23344562       0.03525497 </v>
   <v>      -0.07992082       0.03525463       0.24671827 </v>
  </varray>
  <energy>
   <i name="e_fr_energy">   -988.55573195 </i>
   <i name="e_wo_entrp">   -988.54794319 </i>
   <i name="e_0_energy">     -0.01557751 </i>
  </energy>
  <time name="totalsc"> 1994.52 1996.79</time>
 </calculation>
 <calculation>
  <scstep>
   <time name="dav">  579.30  579.39</time>
   <time name="total">  586.49  586.65</time>
   <energy>
    <i name="alphaZ">   5595.66096911 </i>
    <i name="ewald"> -61802.32101996 </i>
    <i name="hartreedc"> -19846.63927554 </i>
    <i name="XCdc">   3402.72117453 </i>
    <i name="pawpsdc"> 117729.43341180 </i>
    <i name="pawaedc">-117229.73722651 </i>
    <i name="eentropy">     -0.01575906 </i>
    <i name="bandstr">  -7154.56093921 </i>
    <i name="atom">  78316.90445604 </i>
    <i name="e_fr_energy">   -988.55420881 </i>
    <i name="e_wo_entrp">   -988.53844975 </i>
    <i name="e_0_energy">   -988.54632928 </i>
   </energy>
  </scstep>
  <scstep>
   <time name="diag">   64.72   64.72</time>
   <time name="diis">  105.68  105.71</time>
   <time name="orth">   33.37   33.38</time>
   <time name="total">  211.11  211.17</time>
   <energy>
    <i name="e_fr_energy">   -988.55937437 </i>
    <i name="e_wo_entrp">   -988.54361294 </i>
    <i name="e_0_energy">   -988.55149366 </i>
   </energy>
  </scstep>
  <scstep>
   <time name="diag">   64.70   64.71</time>
   <time name="diis">  107.76  107.77</time>
   <time name="orth">   33.45   33.45</time>
   <time name="total">  213.25  213.34</time>
   <energy>
    <i name="e_fr_energy">   -988.55982280 </i>
    <i name="e_wo_entrp">   -988.54408578 </i>
    <i name="e_0_energy">   -988.55195429 </i>
   </energy>
  </scstep>
  <scstep>
   <time name="diag">   64.66   64.67</time>
   <time name="diis">   82.31   82.32</time>
   <time name="orth">   33.38   33.38</time>
   <time name="total">  187.70  187.74</time>
   <energy>
    <i name="e_fr_energy">   -988.55967803 </i>
    <i name="e_wo_entrp">   -988.54393996 </i>
    <i name="e_0_energy">   -988.55180900 </i>
   </energy>
  </scstep>
  <scstep>
   <time name="diag">   64.84   64.85</time>
   <time name="diis">   75.26   75.26</time>
   <time name="orth">   33.41   33.41</time>
   <time name="total">  180.86  180.95</time>
   <energy>
    <i name="e_fr_energy">   -988.55961108 </i>
    <i name="e_wo_entrp">   -988.54388016 </i>
    <i name="e_0_energy">   -988.55174562 </i>
   </energy>
  </scstep>
  <scstep>
   <time name="diag">   64.76   64.76</time>
   <time name="diis">   64.70   64.71</time>
   <time name="orth">   33.43   33.43</time>
   <time name="total">  170.23  170.26</time>
   <energy>
    <i name="e_fr_energy">   -988.55961540 </i>
    <i name="e_wo_entrp">   -988.54388687 </i>
    <i name="e_0_energy">   -988.55175113 </i>
   </energy>
  </scstep>
  <scstep>
   <time name="diag">   64.96   64.96</time>
   <time name="diis">   63.91   63.91</time>
   <time name="orth">   33.37   33.37</time>
   <time name="total">  169.49  169.52</time>
   <energy>
    <i name="e_fr_energy">   -988.55961645 </i>
    <i name="e_wo_entrp">   -988.54388561 </i>
    <i name="e_0_energy">   -988.55175103 </i>
   </energy>
  </scstep>
  <scstep>
   <time name="diag">   64.92   64.95</time>
   <time name="diis">   63.31   63.32</time>
   <time name="orth">   33.39   33.39</time>
   <time name="total">  162.68  162.80</time>
   <energy>
    <i name="alphaZ">   5595.66096911 </i>
    <i name="ewald"> -61802.32101996 </i>
    <i name="hartreedc"> -19850.02854730 </i>
    <i name="XCdc">   3402.94230856 </i>
    <i name="pawpsdc"> 117679.18382789 </i>
    <i name="pawaedc">-117179.42878091 </i>
    <i name="eentropy">     -0.01573163 </i>
    <i name="bandstr">  -7151.45709782 </i>
    <i name="atom">  78316.90445604 </i>
    <i name="e_fr_energy">   -988.55961603 </i>
    <i name="e_wo_entrp">   -988.54388440 </i>
    <i name="e_0_energy">   -988.55175021 </i>
   </energy>
  </scstep>
  <structure>
   <crystal>
    <varray name="basis" >
     <v>      11.24670319      -0.01784559       0.05182194 </v>
     <v>      -0.01786366      11.25952646      -0.06472575 </v>
     <v>       0.07437109      -0.09266170      15.85969291 </v>
    </varray>
    <i name="volume">   2008.23765707 </i>
    <varray name="rec_basis" >
     <v>       0.08891708       0.00013868      -0.00041615 </v>
     <v>       0.00013854       0.08881688       0.00051827 </v>
     <v>      -0.00028997       0.00036202       0.06305640 </v>
    </varray>
   </crystal>
   <varray name="positions" >
    <v>       0.00229712       0.25808192       0.12918424 </v>
    <v>       0.00546084       0.26098946       0.61840187 </v>
    <v>       0.98807596       0.74099907       0.13329041 </v>
    <v>       0.99361140       0.74645795       0.60502150 </v>
    <v>       0.48033732       0.24284274       0.13005740 </v>
    <v>       0.48600923       0.24700741       0.61869866 </v>
    <v>       0.50597374       0.76569838       0.12781303 </v>
    <v>       0.49979598       0.74495993       0.60880878 </v>
    <v>       0.99936205       0.25962829       0.37666110 </v>
    <v>       0.01047416       0.25526809       0.87365007 </v>
    <v>       0.99580127       0.73667295       0.37656629 </v>
    <v>       0.01691379       0.72845666       0.88136647 </v>
    <v>       0.49564870       0.25498827       0.38804843 </v>
    <v>       0.48881278       0.22425215       0.86766063 </v>
    <v>       0.50135209       0.73475561       0.38099506 </v>
    <v>       0.50612424       0.76816468       0.88473098 </v>
    <v>       0.24366190       0.01746669       0.13072973 </v>
    <v>       0.23232578       0.01546929       0.60673993 </v>
    <v>       0.22851135       0.49199765       0.12918861 </v>
    <v>       0.24482964       0.49676569       0.61527032 </v>
    <v>       0.75376443       0.00033533       0.12440056 </v>
    <v>       0.76152928       0.00119350       0.61369206 </v>
    <v>       0.76496842       0.50702161       0.13258350 </v>
    <v>       0.75821345       0.50694414       0.61873820 </v>
    <v>       0.24894077       0.01178235       0.37373451 </v>
    <v>       0.24265361       0.01772790       0.88007303 </v>
    <v>       0.24130839       0.49505642       0.37784819 </v>
    <v>       0.23675058       0.47510391       0.88157758 </v>
    <v>       0.75272587       0.00094786       0.37441522 </v>
    <v>       0.75340393       0.98967710       0.88185511 </v>
    <v>       0.75763570       0.49498038       0.38860889 </v>
    <v>       0.77944883       0.49908773       0.87034059 </v>
    <v>       0.00300442       0.99642935       0.99535760 </v>
    <v>       0.49577202       0.00086128       0.00356075 </v>
    <v>       0.50172450       0.99776704       0.48718539 </v>
    <v>       0.51395162       0.49216021       0.97237853 </v>
    <v>       0.75390314       0.24035768       0.98170337 </v>
    <v>       0.75123023       0.75106503       0.00103930 </v>
    <v>       0.24530867       0.75761507       0.25019187 </v>
    <v>       0.25335794       0.77910343       0.73673935 </v>
    <v>       0.99861516       0.99943647       0.50335775 </v>
    <v>       0.00315760       0.49932040       0.00380272 </v>
    <v>       0.00015885       0.50048766       0.49884831 </v>
    <v>       0.50178928       0.49834874       0.50450454 </v>
    <v>       0.24095257       0.24555972       0.00334811 </v>
    <v>       0.24695801       0.25454227       0.49732553 </v>
    <v>       0.23915758       0.76026380       0.02099132 </v>
    <v>       0.24994415       0.74828879       0.49070876 </v>
    <v>       0.74968384       0.24922150       0.50551324 </v>
    <v>       0.74605944       0.75159665       0.50047692 </v>
    <v>       0.24117160       0.25296010       0.25343989 </v>
    <v>       0.24173835       0.24269703       0.74436700 </v>
    <v>       0.74626471       0.24725356       0.26032369 </v>
    <v>       0.74056928       0.25635411       0.74168761 </v>
    <v>       0.75619792       0.74066968       0.25572619 </v>
    <v>       0.78292383       0.75770617       0.75112047 </v>
    <v>       0.99381559       0.00196931       0.23732544 </v>
    <v>       0.00307832       0.99828997       0.75203241 </v>
    <v>       0.99641277       0.49474710       0.25248939 </v>
    <v>       0.99831111       0.48484156       0.74861465 </v>
    <v>       0.48878444       0.01366023       0.24910868 </v>
    <v>       0.49025059       0.00877790       0.75396468 </v>
    <v>       0.52296443       0.48266121       0.25877054 </v>
    <v>       0.49555217       0.47161530       0.75154724 </v>
    <v>       0.12029638       0.11802231       0.26148986 </v>
    <v>       0.09292249       0.14368326       0.74740326 </v>
    <v>       0.12600912       0.63025161       0.24882684 </v>
    <v>       0.21428389       0.64752292       0.79447031 </v>
    <v>       0.63398420       0.10779985       0.23978025 </v>
    <v>       0.61444365       0.12738895       0.73394073 </v>
    <v>       0.59587139       0.63563370       0.23791992 </v>
    <v>       0.37381755       0.41988145       0.23494948 </v>
    <v>       0.39041362       0.34587079       0.75351465 </v>
    <v>       0.39294566       0.86428800       0.25330050 </v>
    <v>       0.41309837       0.83757680       0.75069540 </v>
    <v>       0.86668030       0.36896304       0.24153171 </v>
    <v>       0.88816343       0.35398089       0.75462460 </v>
    <v>       0.87754729       0.87788851       0.26524887 </v>
    <v>       0.84588361       0.92444932       0.75119704 </v>
    <v>       0.37634081       0.13649751       0.25601533 </v>
    <v>       0.34305484       0.09518605       0.73529185 </v>
    <v>       0.87373775       0.12535601       0.24386763 </v>
    <v>       0.86766041       0.61948884       0.25500213 </v>
    <v>       0.89164833       0.61906239       0.75678502 </v>
    <v>       0.12106562       0.37292228       0.25019124 </v>
    <v>       0.14032273       0.39152574       0.74830919 </v>
    <v>       0.13391197       0.87989042       0.25216941 </v>
    <v>       0.12982963       0.88214621       0.76977427 </v>
    <v>       0.62677834       0.36412474       0.20889709 </v>
    <v>       0.64756718       0.40058441       0.75356069 </v>
    <v>       0.38004038       0.41893961       0.01602246 </v>
    <v>       0.37848312       0.37599970       0.50735409 </v>
    <v>       0.37533412       0.87003105       0.99266995 </v>
    <v>       0.37642326       0.87840847       0.50818143 </v>
    <v>       0.85544049       0.37066727       0.00907743 </v>
    <v>       0.87384382       0.37710002       0.50372232 </v>
    <v>       0.87247876       0.86887462       0.98933721 </v>
    <v>       0.87616481       0.87303774       0.49130757 </v>
    <v>       0.12512298       0.11756656       0.00589720 </v>
    <v>       0.12101349       0.12406048       0.48611979 </v>
    <v>       0.13082253       0.62526134       0.99946462 </v>
    <v>       0.12222752       0.62904890       0.49410087 </v>
    <v>       0.62557389       0.13783571       0.01914010 </v>
    <v>       0.61726108       0.12231060       0.51328430 </v>
    <v>       0.59558145       0.62274957       0.01825902 </v>
    <v>       0.62501652       0.62341265       0.50347018 </v>
    <v>       0.11999269       0.36871275       0.00399221 </v>
    <v>       0.12419772       0.37990378       0.49892625 </v>
    <v>       0.12275406       0.87669004       0.97501756 </v>
    <v>       0.12348860       0.87887301       0.47441063 </v>
    <v>       0.62157466       0.37022080       0.95864712 </v>
    <v>       0.62354506       0.37533615       0.52741610 </v>
    <v>       0.62638665       0.87672055       0.00469087 </v>
    <v>       0.62033234       0.88109819       0.51842300 </v>
    <v>       0.37941397       0.12969943       0.99923259 </v>
    <v>       0.37681543       0.12002015       0.49917317 </v>
    <v>       0.37685781       0.62368155       0.50049569 </v>
    <v>       0.86848527       0.12553827       0.01899101 </v>
    <v>       0.87679060       0.11640846       0.47788538 </v>
    <v>       0.86400708       0.62278266       0.00067637 </v>
    <v>       0.87289945       0.62643294       0.49675507 </v>
    <v>       0.00397003       0.97433829       0.11964130 </v>
    <v>       0.00344964       0.99151086       0.62422330 </v>
    <v>       0.99504001       0.50398873       0.12607102 </v>
    <v>       0.00889667       0.51096410       0.62852579 </v>
    <v>       0.49013028       0.99337220       0.12622871 </v>
    <v>       0.48097568       0.53801118       0.64782366 </v>
    <v>       0.98281366       0.02702288       0.87597704 </v>
    <v>       0.99650587       0.49485940       0.37412122 </v>
    <v>       0.00422165       0.49507153       0.87721329 </v>
    <v>       0.52019759       0.98809471       0.37100106 </v>
    <v>       0.52024929       0.99869201       0.87981316 </v>
    <v>       0.52305326       0.48193313       0.37720961 </v>
    <v>       0.47064388       0.54641427       0.86377059 </v>
    <v>       0.25900263       0.26324646       0.37488962 </v>
    <v>       0.25219731       0.24505819       0.87786100 </v>
    <v>       0.27594238       0.72562139       0.36618316 </v>
    <v>       0.72469152       0.26195268       0.37835368 </v>
    <v>       0.76817810       0.21237952       0.86570264 </v>
    <v>       0.72030558       0.76412295       0.37207155 </v>
    <v>       0.72555148       0.73886934       0.87296013 </v>
    <v>       0.24940886       0.24439995       0.12845364 </v>
    <v>       0.24168047       0.24719589       0.61947078 </v>
    <v>       0.29472225       0.70952116       0.13443591 </v>
    <v>       0.23205999       0.75322246       0.62318652 </v>
    <v>       0.78424444       0.22356038       0.62837002 </v>
    <v>       0.75024970       0.76525513       0.13003252 </v>
    <v>       0.74648294       0.74550273       0.63220810 </v>
   </varray>
  </structure>
  <varray name="forces" >
   <v>      -0.00838898      -0.02349896      -0.01224243 </v>
   <v>      -0.00212328       0.00279094      -0.00833604 </v>
   <v>       0.01173603      -0.01448737       0.00751940 </v>
   <v>       0.00459601      -0.00318731       0.02247891 </v>
   <v>      -0.03150642       0.03349093      -0.00088732 </v>
   <v>      -0.00403004       0.02184460      -0.01927414 </v>
   <v>      -0.00120645       0.01818848       0.00783067 </v>
   <v>       0.00325391      -0.00219272      -0.00533796 </v>
   <v>      -0.00770537      -0.00708145       0.00238027 </v>
   <v>       0.00333110      -0.00547983       0.00324244 </v>
   <v>      -0.00214784      -0.00627243       0.00461237 </v>
   <v>      -0.01856325       0.02200030      -0.01463231 </v>
   <v>      -0.01417558      -0.00335797      -0.01439200 </v>
   <v>       0.01523324      -0.00187489       0.00678134 </v>
   <v>       0.00350088      -0.00182583      -0.01308041 </v>
   <v>       0.00612123      -0.00548724       0.00205987 </v>
   <v>      -0.00844716       0.00346014       0.00517306 </v>
   <v>      -0.00490157       0.02312714      -0.02931719 </v>
   <v>      -0.00659425      -0.01453556      -0.01188218 </v>
   <v>      -0.00489475      -0.00665680      -0.01379540 </v>
   <v>       0.00299293       0.00803906       0.00909812 </v>
   <v>      -0.01762815      -0.00645282      -0.01743392 </v>
   <v>       0.00289083      -0.01564366      -0.00615269 </v>
   <v>       0.01058437       0.00057178      -0.01205749 </v>
   <v>      -0.00206586      -0.01472814       0.00919978 </v>
   <v>      -0.00520122       0.01507047       0.00388254 </v>
   <v>       0.00315911      -0.00704620      -0.00979287 </v>
   <v>      -0.01280544      -0.01560057      -0.00770203 </v>
   <v>      -0.01583379       0.00300194       0.01122536 </v>
   <v>      -0.00591802       0.02345609       0.01381055 </v>
   <v>       0.01513308      -0.00073097      -0.00457085 </v>
   <v>       0.03316141       0.00376964      -0.00047940 </v>
   <v>      -0.01029616      -0.00716504       0.04384307 </v>
   <v>       0.00159917       0.01315285       0.01395679 </v>
   <v>       0.00163570      -0.00009599       0.00217264 </v>
   <v>      -0.07333009      -0.11801372      -0.03055450 </v>
   <v>       0.00178285      -0.00191571      -0.01974149 </v>
   <v>       0.03000378       0.02280458      -0.00896387 </v>
   <v>      -0.07265068       0.02353569      -0.00727416 </v>
   <v>      -0.00633844      -0.05195083       0.04830479 </v>
   <v>      -0.01121754      -0.00768650       0.00201671 </v>
   <v>       0.00580820       0.00674748       0.00616719 </v>
   <v>       0.00132583      -0.00740981       0.00150934 </v>
   <v>       0.00164151      -0.00198060      -0.00214660 </v>
   <v>       0.00051426       0.00159039       0.00435124 </v>
   <v>      -0.00343424      -0.00565848      -0.00192828 </v>
   <v>       0.00046649      -0.00435384       0.00369177 </v>
   <v>      -0.00484990      -0.00061124       0.01022651 </v>
   <v>       0.00929345      -0.00115281      -0.00605604 </v>
   <v>       0.00288175      -0.00137010       0.00862895 </v>
   <v>      -0.00315002      -0.00448774       0.00237619 </v>
   <v>       0.00982367      -0.00367426       0.00013268 </v>
   <v>       0.00438926      -0.00937135       0.00576804 </v>
   <v>      -0.00812677       0.01238375      -0.00448307 </v>
   <v>       0.02246799      -0.00787099       0.00224480 </v>
   <v>       0.01147770       0.01360840      -0.00687593 </v>
   <v>       0.00161997       0.00161021      -0.00373077 </v>
   <v>       0.01100525      -0.00789131       0.00183988 </v>
   <v>       0.01236147      -0.01331607      -0.00042776 </v>
   <v>       0.01832397       0.01082112       0.00247565 </v>
   <v>       0.00272149       0.01312574      -0.01338514 </v>
   <v>      -0.02206323      -0.00710223       0.00889728 </v>
   <v>      -0.01836298      -0.01625544       0.00741799 </v>
   <v>       0.00812514      -0.01585250       0.01579879 </v>
   <v>      -0.00251603      -0.00692455       0.01198779 </v>
   <v>      -0.00928779      -0.01359017      -0.00920227 </v>
   <v>       0.03566325      -0.02193150      -0.00143983 </v>
   <v>      -0.02243230       0.02788931       0.00114734 </v>
   <v>      -0.00841767       0.00448401       0.00184165 </v>
   <v>      -0.02129166      -0.01218186      -0.00013674 </v>
   <v>      -0.01036076       0.01663034      -0.01382521 </v>
   <v>       0.02161581       0.01054500      -0.00011644 </v>
   <v>       0.00843519      -0.02081070       0.02424484 </v>
   <v>      -0.00776281       0.01614980      -0.00383352 </v>
   <v>       0.01747804       0.01992498       0.00689187 </v>
   <v>       0.00381908      -0.00242646       0.00213009 </v>
   <v>       0.00021832       0.01674181      -0.00868578 </v>
   <v>      -0.01955956      -0.00106773       0.00297902 </v>
   <v>      -0.00316509       0.01980688       0.00476213 </v>
   <v>       0.00636635       0.00845003      -0.00281608 </v>
   <v>      -0.01098041      -0.00874936       0.00375412 </v>
   <v>      -0.00715669       0.00808503       0.00686206 </v>
   <v>      -0.01094199       0.02733359      -0.00526748 </v>
   <v>       0.04291039       0.04207352       0.00123510 </v>
   <v>       0.00323190      -0.00847511      -0.00296865 </v>
   <v>       0.00543660      -0.00382553      -0.01474115 </v>
   <v>       0.03468649      -0.05932686      -0.01778327 </v>
   <v>      -0.00188778       0.02047565       0.00508489 </v>
   <v>       0.00715410       0.01814253       0.02670480 </v>
   <v>       0.02308590       0.01814608      -0.01469556 </v>
   <v>       0.05664764       0.04317379      -0.01856902 </v>
   <v>      -0.00558078       0.00670807      -0.00269658 </v>
   <v>       0.01425916      -0.02859856       0.01359483 </v>
   <v>      -0.00414987      -0.00784830       0.01084380 </v>
   <v>       0.01462702      -0.00937637       0.00203750 </v>
   <v>       0.00043596       0.00330829      -0.00473358 </v>
   <v>      -0.00640098      -0.01303674       0.00676472 </v>
   <v>      -0.01039555       0.00884642      -0.01252032 </v>
   <v>      -0.00868330      -0.00296932       0.00765586 </v>
   <v>       0.00700802      -0.01053355      -0.01221929 </v>
   <v>       0.00424124      -0.00118080       0.02126362 </v>
   <v>       0.00750420      -0.00104592      -0.00541263 </v>
   <v>       0.00449762      -0.03088195      -0.01332804 </v>
   <v>       0.00886191      -0.00744535      -0.01265088 </v>
   <v>       0.01708080       0.06268957       0.03136717 </v>
   <v>       0.01536609      -0.00709084       0.01453111 </v>
   <v>      -0.01856255      -0.01431712       0.00603657 </v>
   <v>      -0.00245769      -0.00354582      -0.00528578 </v>
   <v>       0.02111455      -0.00788585       0.01491901 </v>
[...]
       <r>   -17.8835     0.0000    32.0000 </r>
       <r>   -17.7284     0.0000    32.0000 </r>
       <r>   -17.5733     0.0000    32.0000 </r>
       <r>   -17.4183     0.0000    32.0000 </r>
       <r>   -17.2632     0.0000    32.0000 </r>
       <r>   -17.1081     0.0000    32.0000 </r>
       <r>   -16.9530     0.0000    32.0000 </r>
       <r>   -16.7979     0.0000    32.0000 </r>
       <r>   -16.6428     0.0000    32.0000 </r>
       <r>   -16.4877     0.0000    32.0000 </r>
       <r>   -16.3326     0.0000    32.0000 </r>
       <r>   -16.1775     0.0000    32.0000 </r>
       <r>   -16.0224     0.0000    32.0000 </r>
       <r>   -15.8673     0.0000    32.0000 </r>
       <r>   -15.7122     0.0000    32.0000 </r>
       <r>   -15.5571     0.0000    32.0000 </r>
       <r>   -15.4020     0.1340    32.0208 </r>
       <r>   -15.2469     7.5657    33.1942 </r>
       <r>   -15.0918    21.0535    36.4596 </r>
       <r>   -14.9367    34.2882    41.7776 </r>
       <r>   -14.7816    43.0030    48.4472 </r>
       <r>   -14.6265    38.9374    54.4863 </r>
       <r>   -14.4714    49.9834    62.2386 </r>
       <r>   -14.3163    46.0189    69.3760 </r>
       <r>   -14.1612    59.2998    78.5733 </r>
       <r>   -14.0061    63.5164    88.4245 </r>
       <r>   -13.8510    56.7615    97.2281 </r>
       <r>   -13.6959    54.5997   105.6964 </r>
       <r>   -13.5408    44.9453   112.6673 </r>
       <r>   -13.3857    21.2451   115.9623 </r>
       <r>   -13.2306     0.2430   116.0000 </r>
       <r>   -13.0755     0.0000   116.0000 </r>
       <r>   -12.9204     4.8039   116.7451 </r>
       <r>   -12.7653    37.9462   122.6304 </r>
       <r>   -12.6102    61.8785   132.2276 </r>
       <r>   -12.4551   100.0659   147.7476 </r>
       <r>   -12.3000   110.0502   164.8161 </r>
       <r>   -12.1449   100.5636   180.4133 </r>
       <r>   -11.9898    81.6833   193.0822 </r>
       <r>   -11.8347    65.1844   203.1921 </r>
       <r>   -11.6796    39.0865   209.2543 </r>
       <r>   -11.5245    16.7859   211.8578 </r>
       <r>   -11.3694     0.9169   212.0000 </r>
       <r>   -11.2144     0.0000   212.0000 </r>
       <r>   -11.0593     0.0000   212.0000 </r>
       <r>   -10.9042     0.0000   212.0000 </r>
       <r>   -10.7491     0.0000   212.0000 </r>
       <r>   -10.5940     0.0000   212.0000 </r>
       <r>   -10.4389     0.0000   212.0000 </r>
       <r>   -10.2838     0.0000   212.0000 </r>
       <r>   -10.1287     0.0000   212.0000 </r>
       <r>    -9.9736     0.0000   212.0000 </r>
       <r>    -9.8185     0.0000   212.0000 </r>
       <r>    -9.6634     0.0000   212.0000 </r>
       <r>    -9.5083     0.0000   212.0000 </r>
       <r>    -9.3532     0.0000   212.0000 </r>
       <r>    -9.1981     0.0000   212.0000 </r>
       <r>    -9.0430     0.0000   212.0000 </r>
       <r>    -8.8879     0.0000   212.0000 </r>
       <r>    -8.7328     0.0000   212.0000 </r>
       <r>    -8.5777     0.0000   212.0000 </r>
       <r>    -8.4226     0.0000   212.0000 </r>
       <r>    -8.2675     0.0000   212.0000 </r>
       <r>    -8.1124     0.0000   212.0000 </r>
       <r>    -7.9573     0.0000   212.0000 </r>
       <r>    -7.8022     0.0000   212.0000 </r>
       <r>    -7.6471     0.0000   212.0000 </r>
       <r>    -7.4920     0.0000   212.0000 </r>
       <r>    -7.3369     0.0000   212.0000 </r>
       <r>    -7.1818     0.0000   212.0000 </r>
       <r>    -7.0267     0.0000   212.0000 </r>
       <r>    -6.8716     0.0000   212.0000 </r>
       <r>    -6.7165     0.0000   212.0000 </r>
       <r>    -6.5614     0.0000   212.0000 </r>
       <r>    -6.4063     0.0000   212.0000 </r>
       <r>    -6.2512     0.0000   212.0000 </r>
       <r>    -6.0961     0.0000   212.0000 </r>
       <r>    -5.9410     0.0000   212.0000 </r>
       <r>    -5.7859     0.0000   212.0000 </r>
       <r>    -5.6308     0.0000   212.0000 </r>
       <r>    -5.4757     0.0000   212.0000 </r>
       <r>    -5.3206     0.0000   212.0000 </r>
       <r>    -5.1655     0.0000   212.0000 </r>
       <r>    -5.0104     0.0000   212.0000 </r>
       <r>    -4.8554     0.0000   212.0000 </r>
       <r>    -4.7003     0.0000   212.0000 </r>
       <r>    -4.5452     0.0000   212.0000 </r>
       <r>    -4.3901     0.0000   212.0000 </r>
       <r>    -4.2350     0.0000   212.0000 </r>
       <r>    -4.0799     0.0000   212.0000 </r>
       <r>    -3.9248     0.0000   212.0000 </r>
       <r>    -3.7697     0.0000   212.0000 </r>
       <r>    -3.6146     0.0000   212.0000 </r>
       <r>    -3.4595     0.0000   212.0000 </r>
       <r>    -3.3044     0.0000   212.0000 </r>
       <r>    -3.1493     0.0000   212.0000 </r>
       <r>    -2.9942     0.0000   212.0000 </r>
       <r>    -2.8391     0.0435   212.0067 </r>
       <r>    -2.6840     6.2264   212.9725 </r>
       <r>    -2.5289     5.1410   213.7698 </r>
       <r>    -2.3738     9.2225   215.2002 </r>
       <r>    -2.2187    18.9193   218.1345 </r>
       <r>    -2.0636    23.7067   221.8114 </r>
       <r>    -1.9085    30.3228   226.5144 </r>
       <r>    -1.7534    24.1449   230.2592 </r>
       <r>    -1.5983    27.5241   234.5281 </r>
       <r>    -1.4432    37.2457   240.3048 </r>
       <r>    -1.2881    46.6130   247.5344 </r>
       <r>    -1.1330    64.9658   257.6104 </r>
       <r>    -0.9779    71.2710   268.6644 </r>
       <r>    -0.8228    89.7832   282.5895 </r>
       <r>    -0.6677    96.6927   297.5863 </r>
       <r>    -0.5126    91.5480   311.7852 </r>
       <r>    -0.3575    68.7194   322.4434 </r>
       <r>    -0.2024    57.6559   331.3857 </r>
       <r>    -0.0473    57.3458   340.2799 </r>
       <r>     0.1078    55.1284   348.8302 </r>
       <r>     0.2629    55.7027   357.4695 </r>
       <r>     0.4180    59.6096   366.7148 </r>
       <r>     0.5731    59.6605   375.9680 </r>
       <r>     0.7282    57.1511   384.8320 </r>
       <r>     0.8833    58.1117   393.8450 </r>
       <r>     1.0384    53.9542   402.2131 </r>
       <r>     1.1935    57.5115   411.1330 </r>
       <r>     1.3485    62.2681   420.7907 </r>
       <r>     1.5036    63.8852   430.6991 </r>
       <r>     1.6587    64.6635   440.7282 </r>
       <r>     1.8138    61.0590   450.1983 </r>
       <r>     1.9689    35.4569   455.6976 </r>
       <r>     2.1240    24.5320   459.5025 </r>
       <r>     2.2791    23.3712   463.1273 </r>
       <r>     2.4342    18.9213   466.0619 </r>
       <r>     2.5893     6.0438   466.9993 </r>
       <r>     2.7444     0.0045   467.0000 </r>
       <r>     2.8995     0.0000   467.0000 </r>
       <r>     3.0546     0.0000   467.0000 </r>
       <r>     3.2097     0.0000   467.0000 </r>
       <r>     3.3648     0.0000   467.0000 </r>
       <r>     3.5199     0.0000   467.0000 </r>
       <r>     3.6750     0.0000   467.0000 </r>
       <r>     3.8301     0.0000   467.0000 </r>
       <r>     3.9852     0.0000   467.0000 </r>
       <r>     4.1403     0.3034   467.0471 </r>
       <r>     4.2954     9.0723   468.4541 </r>
       <r>     4.4505    48.1524   475.9225 </r>
       <r>     4.6056    61.2364   485.4201 </r>
       <r>     4.7607    64.9158   495.4884 </r>
       <r>     4.9158    63.8999   505.3991 </r>
       <r>     5.0709    67.1108   515.8078 </r>
       <r>     5.2260    83.4194   528.7459 </r>
       <r>     5.3811    89.9318   542.6941 </r>
       <r>     5.5362    79.7648   555.0655 </r>
       <r>     5.6913    51.9901   563.1290 </r>
       <r>     5.8464    46.4425   570.3321 </r>
       <r>     6.0015    45.6653   577.4147 </r>
       <r>     6.1566    56.3014   586.1469 </r>
       <r>     6.3117    34.7125   591.5307 </r>
       <r>     6.4668    27.9553   595.8665 </r>
       <r>     6.6219    26.5052   599.9774 </r>
       <r>     6.7770    34.8478   605.3822 </r>
       <r>     6.9321    33.0300   610.5051 </r>
       <r>     7.0872    20.2515   613.6461 </r>
       <r>     7.2423    21.4361   616.9707 </r>
       <r>     7.3974    18.2922   619.8078 </r>
       <r>     7.5525     9.3597   621.2595 </r>
       <r>     7.7075    14.8911   623.5691 </r>
       <r>     7.8626    10.7936   625.2431 </r>
       <r>     8.0177    15.9893   627.7230 </r>
       <r>     8.1728    21.0745   630.9916 </r>
       <r>     8.3279    25.7357   634.9832 </r>
       <r>     8.4830    28.2359   639.3625 </r>
       <r>     8.6381    21.4302   642.6863 </r>
       <r>     8.7932    27.0441   646.8807 </r>
       <r>     8.9483    31.0834   651.7017 </r>
       <r>     9.1034    37.6670   657.5437 </r>
       <r>     9.2585    41.2027   663.9342 </r>
       <r>     9.4136    44.0216   670.7618 </r>
       <r>     9.5687    45.7663   677.8600 </r>
       <r>     9.7238    46.1825   685.0228 </r>
       <r>     9.8789    51.8271   693.0611 </r>
       <r>    10.0340    50.9828   700.9684 </r>
       <r>    10.1891    53.0056   709.1894 </r>
       <r>    10.3442    51.0038   717.1000 </r>
       <r>    10.4993    49.5110   724.7790 </r>
       <r>    10.6544    51.7319   732.8025 </r>
       <r>    10.8095    52.1357   740.8887 </r>
       <r>    10.9646    50.6570   748.7454 </r>
       <r>    11.1197    53.1266   756.9852 </r>
       <r>    11.2748    52.7883   765.1726 </r>
       <r>    11.4299    18.2169   767.9980 </r>
       <r>    11.5850     0.0130   768.0000 </r>
       <r>    11.7401     0.0000   768.0000 </r>
       <r>    11.8952     0.0000   768.0000 </r>
       <r>    12.0503     0.0000   768.0000 </r>
       <r>    12.2054     0.0000   768.0000 </r>
       <r>    12.3605     0.0000   768.0000 </r>
       <r>    12.5156     0.0000   768.0000 </r>
       <r>    12.6707     0.0000   768.0000 </r>
       <r>    12.8258     0.0000   768.0000 </r>
       <r>    12.9809     0.0000   768.0000 </r>
       <r>    13.1360     0.0000   768.0000 </r>
       <r>    13.2911     0.0000   768.0000 </r>
       <r>    13.4462     0.0000   768.0000 </r>
      </set>
     </set>
    </array>
   </total>
  </dos>
 </calculation>
 <structure name="finalpos" >
  <crystal>
   <varray name="basis" >
    <v>      11.24867259      -0.02111617       0.05182815 </v>
    <v>      -0.02114878      11.25873023      -0.06361173 </v>
    <v>       0.07441201      -0.09109441      15.86187880 </v>
   </varray>
   <i name="volume">   2008.72436808 </i>
   <varray name="rec_basis" >
    <v>       0.08890160       0.00016464      -0.00041611 </v>
    <v>       0.00016439       0.08882315       0.00050934 </v>
    <v>      -0.00028982       0.00035567       0.06304764 </v>
   </varray>
  </crystal>
  <varray name="positions" >
   <v>       0.00180353       0.25718436       0.12863528 </v>
   <v>       0.00498993       0.26117751       0.61837938 </v>
   <v>       0.98859807       0.74057399       0.13362381 </v>
   <v>       0.99390005       0.74589845       0.60581436 </v>
   <v>       0.47971954       0.24466068       0.12989235 </v>
   <v>       0.48603511       0.24773600       0.61811405 </v>
   <v>       0.50592661       0.76617207       0.12771859 </v>
   <v>       0.49947231       0.74474788       0.60885395 </v>
   <v>       0.99912817       0.25899195       0.37670803 </v>
   <v>       0.01016505       0.25501516       0.87344399 </v>
   <v>       0.99561107       0.73639285       0.37688964 </v>
   <v>       0.01686014       0.72960066       0.88130109 </v>
   <v>       0.49540437       0.25505648       0.38749020 </v>
   <v>       0.48951296       0.22345916       0.86803578 </v>
   <v>       0.50147102       0.73469193       0.38054659 </v>
   <v>       0.50679321       0.76779623       0.88505546 </v>
   <v>       0.24345579       0.01703800       0.13078296 </v>
   <v>       0.23226466       0.01558658       0.60649838 </v>
   <v>       0.22847914       0.49148785       0.12901192 </v>
   <v>       0.24464490       0.49662519       0.61455696 </v>
   <v>       0.75359958       0.00046514       0.12464461 </v>
   <v>       0.76096118       0.00099480       0.61376619 </v>
   <v>       0.76525409       0.50683276       0.13238741 </v>
   <v>       0.75906862       0.50698636       0.61838121 </v>
   <v>       0.24903006       0.01019285       0.37387227 </v>
   <v>       0.24211400       0.01787674       0.88013596 </v>
   <v>       0.24151712       0.49525537       0.37736599 </v>
   <v>       0.23641626       0.47481386       0.88149704 </v>
   <v>       0.75218293       0.00095008       0.37497204 </v>
   <v>       0.75334706       0.99052129       0.88228700 </v>
   <v>       0.75815318       0.49498983       0.38843297 </v>
   <v>       0.78052549       0.49947304       0.87005907 </v>
   <v>       0.00280655       0.99607884       0.99555786 </v>
   <v>       0.49595576       0.00059133       0.00376191 </v>
   <v>       0.50154941       0.99770186       0.48710159 </v>
   <v>       0.51398940       0.49215291       0.97235328 </v>
   <v>       0.75367320       0.24054369       0.98148065 </v>
   <v>       0.75145878       0.75112335       0.00113321 </v>
   <v>       0.24521487       0.75746785       0.25008133 </v>
   <v>       0.25338043       0.77853255       0.73717362 </v>
   <v>       0.99840580       0.99911726       0.50337356 </v>
   <v>       0.00341857       0.49948568       0.00386386 </v>
   <v>       0.00033593       0.50026418       0.49871064 </v>
   <v>       0.50178431       0.49849297       0.50399259 </v>
   <v>       0.24020180       0.24492027       0.00333813 </v>
   <v>       0.24675571       0.25447580       0.49698949 </v>
   <v>       0.23968925       0.75977861       0.02118730 </v>
   <v>       0.25001784       0.74814024       0.49093042 </v>
   <v>       0.74960917       0.24916982       0.50521246 </v>
   <v>       0.74622893       0.75155172       0.50047476 </v>
   <v>       0.24066590       0.25224262       0.25348300 </v>
   <v>       0.24188913       0.24260755       0.74414246 </v>
   <v>       0.74640769       0.24724920       0.26047443 </v>
   <v>       0.74003056       0.25715630       0.74135887 </v>
   <v>       0.75659352       0.74069035       0.25560313 </v>
   <v>       0.78332634       0.75892046       0.75111920 </v>
   <v>       0.99338485       0.00181452       0.23753914 </v>
   <v>       0.00333174       0.99830054       0.75174552 </v>
   <v>       0.99671994       0.49415713       0.25244723 </v>
   <v>       0.99912318       0.48548382       0.74842722 </v>
   <v>       0.48858590       0.01446446       0.24903528 </v>
   <v>       0.48942974       0.00862529       0.75414903 </v>
   <v>       0.52287114       0.48321670       0.25875670 </v>
   <v>       0.49555530       0.47119937       0.75170398 </v>
   <v>       0.12057018       0.11697685       0.26208525 </v>
   <v>       0.09244157       0.14400476       0.74682069 </v>
   <v>       0.12761958       0.62852018       0.24935447 </v>
   <v>       0.21271889       0.64806488       0.79554662 </v>
   <v>       0.63378250       0.10870506       0.24021560 </v>
   <v>       0.61332005       0.12783784       0.73394912 </v>
   <v>       0.59523235       0.63632716       0.23781704 </v>
   <v>       0.37442735       0.41978330       0.23447268 </v>
   <v>       0.39151147       0.34440502       0.75451131 </v>
   <v>       0.39173847       0.86558172       0.25294271 </v>
   <v>       0.41310373       0.83721034       0.75121684 </v>
   <v>       0.86692871       0.36877384       0.24148409 </v>
   <v>       0.88833095       0.35493175       0.75419382 </v>
   <v>       0.87660206       0.87840890       0.26543334 </v>
   <v>       0.84558227       0.92614158       0.75149668 </v>
   <v>       0.37649445       0.13731062       0.25594960 </v>
   <v>       0.34204111       0.09454108       0.73552048 </v>
   <v>       0.87357094       0.12556277       0.24401871 </v>
   <v>       0.86833543       0.61984611       0.25483392 </v>
   <v>       0.89508665       0.62207991       0.75660154 </v>
   <v>       0.12085671       0.37214386       0.24989266 </v>
   <v>       0.14093403       0.39157516       0.74786228 </v>
   <v>       0.13263371       0.87832124       0.25086541 </v>
   <v>       0.13033925       0.88253610       0.76962969 </v>
   <v>       0.62702961       0.36449379       0.20981485 </v>
   <v>       0.64872914       0.40232002       0.75275881 </v>
   <v>       0.38021933       0.41935355       0.01606910 </v>
   <v>       0.37826945       0.37649702       0.50703158 </v>
   <v>       0.37662979       0.86855862       0.99333772 </v>
   <v>       0.37597998       0.87860695       0.50871590 </v>
   <v>       0.85600534       0.37011222       0.00914669 </v>
   <v>       0.87350733       0.37724333       0.50376492 </v>
   <v>       0.87307219       0.86850912       0.98954994 </v>
   <v>       0.87553321       0.87370046       0.49055668 </v>
   <v>       0.12448018       0.11754035       0.00644208 </v>
   <v>       0.12148147       0.12330387       0.48578148 </v>
   <v>       0.13066288       0.62526227       0.00029526 </v>
   <v>       0.12266516       0.62833805       0.49387141 </v>
   <v>       0.62539469       0.13724971       0.01826205 </v>
   <v>       0.61772653       0.12184070       0.51249154 </v>
   <v>       0.59504836       0.62333392       0.01834015 </v>
   <v>       0.62563725       0.62278382       0.50414642 </v>
   <v>       0.11951989       0.36832606       0.00420581 </v>
   <v>       0.12396307       0.37934113       0.49867201 </v>
   <v>       0.12337074       0.87686898       0.97615590 </v>
   <v>       0.12329195       0.87819342       0.47489808 </v>
   <v>       0.62181077       0.37028434       0.96001486 </v>
   <v>       0.62316543       0.37552054       0.52684082 </v>
   <v>       0.62704528       0.87679726       0.00508456 </v>
   <v>       0.61992897       0.88070054       0.51797065 </v>
   <v>       0.37859300       0.12827931       0.99916262 </v>
   <v>       0.37718197       0.12023317       0.49906355 </v>
   <v>       0.37739478       0.62401019       0.49980249 </v>
   <v>       0.86778382       0.12489206       0.01785545 </v>
   <v>       0.87722808       0.11694382       0.47824336 </v>
   <v>       0.86344461       0.62224796       0.00084295 </v>
   <v>       0.87352864       0.62689681       0.49683299 </v>
   <v>       0.00246823       0.97575963       0.11981423 </v>
   <v>       0.00333686       0.99055395       0.62413108 </v>
   <v>       0.99473453       0.50404886       0.12617816 </v>
   <v>       0.00846851       0.51034606       0.62791167 </v>
   <v>       0.49114664       0.99379038       0.12640252 </v>
   <v>       0.47797190       0.53838081       0.64847432 </v>
   <v>       0.98399447       0.02653086       0.87595365 </v>
   <v>       0.99600290       0.49413331       0.37418768 </v>
   <v>       0.00466952       0.49549377       0.87731250 </v>
   <v>       0.51954096       0.98759596       0.37089143 </v>
   <v>       0.52076750       0.99794556       0.87989163 </v>
   <v>       0.52248352       0.48283661       0.37715376 </v>
   <v>       0.47188680       0.54627764       0.86362268 </v>
   <v>       0.25926723       0.26366863       0.37480596 </v>
   <v>       0.25114840       0.24483801       0.87810472 </v>
   <v>       0.27575063       0.72721771       0.36638480 </v>
   <v>       0.72556024       0.26186622       0.37847572 </v>
   <v>       0.76714550       0.21392030       0.86533886 </v>
   <v>       0.72040188       0.76317356       0.37198690 </v>
   <v>       0.72630368       0.73951470       0.87309065 </v>
   <v>       0.24945962       0.24405767       0.12841392 </v>
   <v>       0.24197198       0.24745022       0.61919583 </v>
   <v>       0.29520787       0.70902782       0.13477990 </v>
   <v>       0.23245455       0.75163133       0.62354749 </v>
   <v>       0.78299933       0.22390673       0.62810054 </v>
   <v>       0.75047220       0.76515914       0.13017943 </v>
   <v>       0.74706345       0.74673883       0.63207638 </v>
  </varray>
 </structure>
</modeling>
