       N       E                     dE             d eps       ncg     rms          rms(c)
DAV:   1    -0.990517789310E+03   -0.99052E+03   -0.65031E-03  6872   0.192E-01    0.355E-02
RMM:   2    -0.990517787316E+03    0.19942E-05   -0.34576E-05  3345   0.962E-03    0.663E-02
RMM:   3    -0.990517787165E+03    0.15073E-06   -0.85043E-06  2981   0.542E-03    0.639E-03
RMM:   4    -0.990517786987E+03    0.17849E-06   -0.85074E-07  1239   0.180E-03    0.314E-03
RMM:   5    -0.990517786980E+03    0.66066E-08   -0.57457E-07  1196   0.204E-03    0.200E-03
RMM:   6    -0.990517786980E+03   -0.39290E-09   -0.26984E-07  1003   0.181E-03    0.780E-04
RMM:   7    -0.990517786997E+03   -0.16254E-07   -0.18593E-07   862   0.184E-03    0.423E-04
RMM:   8    -0.990517786997E+03   -0.20373E-09   -0.70907E-08   712   0.177E-03
   1 F= -.99051779E+03 E0= -.99051779E+03  d E =-.990518E+03  mag=   120.0000
       N       E                     dE             d eps       ncg     rms          rms(c)
DAV:   1    -0.990517154117E+03    0.63288E-03   -0.26163E-01  6208   0.601E-01    0.330E-01
RMM:   2    -0.990518248552E+03   -0.10944E-02   -0.85335E-03  6310   0.134E-01    0.236E-01
RMM:   3    -0.990518352251E+03   -0.10370E-03   -0.46010E-04  5023   0.353E-02    0.146E-01
RMM:   4    -0.990518293764E+03    0.58487E-04   -0.93931E-05  3786   0.148E-02    0.908E-02
RMM:   5    -0.990518261148E+03    0.32615E-04   -0.11987E-04  3738   0.132E-02    0.361E-02
RMM:   6    -0.990518261758E+03   -0.60945E-06   -0.23062E-05  3550   0.858E-03    0.247E-02
RMM:   7    -0.990518261961E+03   -0.20310E-06   -0.88626E-06  3160   0.419E-03    0.163E-02
RMM:   8    -0.990518261669E+03    0.29152E-06   -0.38900E-06  2758   0.357E-03
   2 F= -.99051826E+03 E0= -.99051826E+03  d E =-.474673E-03  mag=   120.0000
       N       E                     dE             d eps       ncg     rms          rms(c)
DAV:   1    -0.990518270082E+03   -0.81212E-05   -0.23733E-02  6320   0.181E-01    0.101E-01
RMM:   2    -0.990518368360E+03   -0.98278E-04   -0.76042E-04  5743   0.408E-02    0.719E-02
RMM:   3    -0.990518378102E+03   -0.97416E-05   -0.38684E-05  3327   0.119E-02    0.451E-02
RMM:   4    -0.990518373571E+03    0.45313E-05   -0.11666E-05  3225   0.564E-03    0.269E-02
RMM:   5    -0.990518370678E+03    0.28925E-05   -0.10899E-05  2936   0.409E-03    0.135E-02
RMM:   6    -0.990518370741E+03   -0.62515E-07   -0.14788E-06  2098   0.263E-03    0.629E-03
RMM:   7    -0.990518370765E+03   -0.23821E-07   -0.31132E-08   972   0.166E-03    0.277E-03
RMM:   8    -0.990518370820E+03   -0.55035E-07   -0.73094E-08   834   0.170E-03
   3 F= -.99051837E+03 E0= -.99051837E+03  d E =-.583823E-03  mag=   120.0000
       N       E                     dE             d eps       ncg     rms          rms(c)
DAV:   1    -0.990517839950E+03    0.53081E-03   -0.24448E-01  6192   0.591E-01    0.255E-01
RMM:   2    -0.990518753550E+03   -0.91360E-03   -0.70247E-03  6306   0.121E-01    0.169E-01
RMM:   3    -0.990518832758E+03   -0.79208E-04   -0.34907E-04  4772   0.327E-02    0.980E-02
RMM:   4    -0.990518806634E+03    0.26124E-04   -0.64033E-05  3652   0.125E-02    0.594E-02
RMM:   5    -0.990518794601E+03    0.12033E-04   -0.56728E-05  3607   0.963E-03    0.251E-02
RMM:   6    -0.990518795882E+03   -0.12806E-05   -0.12578E-05  3393   0.614E-03    0.119E-02
RMM:   7    -0.990518796073E+03   -0.19079E-06   -0.54829E-06  2901   0.345E-03    0.110E-02
RMM:   8    -0.990518796062E+03    0.10710E-07   -0.23664E-06  2224   0.294E-03
   4 F= -.99051880E+03 E0= -.99051880E+03  d E =-.425242E-03  mag=   120.0000
