<?xml version="1.0" encoding="ISO-8859-1"?>
<modeling>
 <generator>
  <i name="program" type="string">vasp </i>
  <i name="version" type="string">5.4.1  </i>
  <i name="subversion" type="string">05Feb16 (build Jan 25 2017 20:16:33) complex                          parallel </i>
  <i name="platform" type="string">BWXE6 </i>
  <i name="date" type="string">2019 07 25 </i>
  <i name="time" type="string">12:25:18 </i>
 </generator>
 <incar>
  <i type="string" name="SYSTEM"> STF</i>
  <i type="string" name="PREC">normal</i>
  <i type="string" name="ALGO"> Fast</i>
  <i type="int" name="ISPIN">     2</i>
  <i type="int" name="NELM">    40</i>
  <i type="int" name="NELMIN">     8</i>
  <i type="int" name="IBRION">     2</i>
  <i name="EDIFF">      0.00010000</i>
  <i name="EDIFFG">     -0.03000000</i>
  <i type="int" name="NSW">    30</i>
  <i type="int" name="ISIF">     3</i>
  <i name="ENCUT">    520.00000000</i>
  <i type="int" name="NBANDS">   768</i>
  <v name="MAGMOM">      0.60000000      0.60000000      0.60000000      0.60000000      0.60000000      0.60000000      0.60000000      0.60000000      0.60000000      0.60000000      0.60000000      0.60000000      0.60000000      0.60000000      0.60000000      0.60000000      0.60000000      0.60000000      0.60000000      0.60000000
      0.60000000      0.60000000      0.60000000      0.60000000      0.60000000      0.60000000      0.60000000      0.60000000      0.60000000      0.60000000      0.60000000      0.60000000      0.60000000      0.60000000      0.60000000      0.60000000      0.60000000      0.60000000      0.60000000      0.60000000
      5.00000000      5.00000000      5.00000000      5.00000000      5.00000000      5.00000000      5.00000000      5.00000000      5.00000000      5.00000000      5.00000000      5.00000000      5.00000000      5.00000000      5.00000000      5.00000000      5.00000000      5.00000000      5.00000000      5.00000000
      5.00000000      5.00000000      5.00000000      5.00000000      0.60000000      0.60000000      0.60000000      0.60000000      0.60000000      0.60000000      0.60000000      0.60000000      0.60000000      0.60000000      0.60000000      0.60000000      0.60000000      0.60000000      0.60000000      0.60000000
      0.60000000      0.60000000      0.60000000      0.60000000      0.60000000      0.60000000      0.60000000      0.60000000      0.60000000      0.60000000      0.60000000      0.60000000      0.60000000      0.60000000      0.60000000      0.60000000      0.60000000      0.60000000      0.60000000      0.60000000
      0.60000000      0.60000000      0.60000000      0.60000000      0.60000000      0.60000000      0.60000000      0.60000000      0.60000000      0.60000000      0.60000000      0.60000000      0.60000000      0.60000000      0.60000000      0.60000000      0.60000000      0.60000000      0.60000000      0.60000000
      0.60000000      0.60000000      0.60000000      0.60000000      0.60000000      0.60000000      0.60000000      0.60000000      0.60000000      0.60000000      0.60000000      0.60000000      0.60000000      0.60000000      0.60000000      0.60000000      0.60000000      0.60000000      0.60000000      0.60000000
      0.60000000      0.60000000      0.60000000      0.60000000      0.60000000      0.60000000      0.60000000      0.60000000</v>
  <i type="string" name="LREAL"> Auto</i>
  <i type="int" name="ISMEAR">     0</i>
  <i name="SIGMA">      0.05000000</i>
  <i type="int" name="LMAXMIX">     4</i>
  <v type="int" name="KPOINT_BSE">    -1     0     0     0</v>
  <i type="int" name="NELM">    40</i>
  <i type="logical" name="LDAU"> T  </i>
  <v type="int" name="LDAUTYPE">     2</v>
  <v type="int" name="LDAUL">     0     2     2     0</v>
  <v name="LDAUU">      0.00000000      3.00000000      5.00000000      0.00000000</v>
  <v name="LDAUJ">      0.00000000      0.00000000      0.00000000      0.00000000</v>
  <i type="int" name="LDAUPRINT">     1</i>
 </incar>
 <kpoints>
  <generation param="Monkhorst-Pack">
   <v type="int" name="divisions">       2        2        2 </v>
   <v name="usershift">      0.00000000       0.00000000       0.00000000 </v>
   <v name="genvec1">      0.50000000      -0.00000000       0.00000000 </v>
   <v name="genvec2">      0.00000000       0.50000000       0.00000000 </v>
   <v name="genvec3">      0.00000000       0.00000000       0.50000000 </v>
   <v name="shift">      0.50000000       0.50000000       0.50000000 </v>
  </generation>
  <varray name="kpointlist" >
   <v>       0.25000000       0.25000000       0.25000000 </v>
   <v>      -0.25000000       0.25000000       0.25000000 </v>
  </varray>
  <varray name="weights" >
   <v>       0.50000000 </v>
   <v>       0.50000000 </v>
  </varray>
 </kpoints>
 <parameters>
  <separator name="general" >
   <i type="string" name="SYSTEM">STF</i>
   <i type="logical" name="LCOMPAT"> F  </i>
  </separator>
  <separator name="electronic" >
   <i type="string" name="PREC">normal</i>
   <i name="ENMAX">    520.00000000</i>
   <i name="ENAUG">    605.39200000</i>
   <i name="EDIFF">      0.00010000</i>
   <i type="int" name="IALGO">    68</i>
   <i type="int" name="IWAVPR">    11</i>
   <i type="int" name="NBANDS">   768</i>
   <i name="NELECT">   1048.00000000</i>
   <i type="int" name="TURBO">     0</i>
   <i type="int" name="IRESTART">     0</i>
   <i type="int" name="NREBOOT">     0</i>
   <i type="int" name="NMIN">     0</i>
   <i name="EREF">      0.00000000</i>
   <separator name="electronic smearing" >
    <i type="int" name="ISMEAR">     0</i>
    <i name="SIGMA">      0.05000000</i>
    <i name="KSPACING">      0.50000000</i>
    <i type="logical" name="KGAMMA"> T  </i>
   </separator>
   <separator name="electronic projectors" >
    <i type="logical" name="LREAL"> T  </i>
    <v name="ROPT">     -0.00050000     -0.00050000     -0.00050000     -0.00050000</v>
    <i type="int" name="LMAXPAW">  -100</i>
    <i type="int" name="LMAXMIX">     4</i>
    <i type="logical" name="NLSPLINE"> F  </i>
   </separator>
   <separator name="electronic startup" >
    <i type="int" name="ISTART">     1</i>
    <i type="int" name="ICHARG">     0</i>
    <i type="int" name="INIWAV">     1</i>
   </separator>
   <separator name="electronic spin" >
    <i type="int" name="ISPIN">     2</i>
    <i type="logical" name="LNONCOLLINEAR"> F  </i>
    <v name="MAGMOM">      0.60000000      0.60000000      0.60000000      0.60000000      0.60000000      0.60000000      0.60000000      0.60000000      0.60000000      0.60000000      0.60000000      0.60000000      0.60000000      0.60000000      0.60000000      0.60000000      0.60000000      0.60000000      0.60000000      0.60000000
      0.60000000      0.60000000      0.60000000      0.60000000      0.60000000      0.60000000      0.60000000      0.60000000      0.60000000      0.60000000      0.60000000      0.60000000      0.60000000      0.60000000      0.60000000      0.60000000      0.60000000      0.60000000      0.60000000      0.60000000
      5.00000000      5.00000000      5.00000000      5.00000000      5.00000000      5.00000000      5.00000000      5.00000000      5.00000000      5.00000000      5.00000000      5.00000000      5.00000000      5.00000000      5.00000000      5.00000000      5.00000000      5.00000000      5.00000000      5.00000000
      5.00000000      5.00000000      5.00000000      5.00000000      0.60000000      0.60000000      0.60000000      0.60000000      0.60000000      0.60000000      0.60000000      0.60000000      0.60000000      0.60000000      0.60000000      0.60000000      0.60000000      0.60000000      0.60000000      0.60000000
      0.60000000      0.60000000      0.60000000      0.60000000      0.60000000      0.60000000      0.60000000      0.60000000      0.60000000      0.60000000      0.60000000      0.60000000      0.60000000      0.60000000      0.60000000      0.60000000      0.60000000      0.60000000      0.60000000      0.60000000
      0.60000000      0.60000000      0.60000000      0.60000000      0.60000000      0.60000000      0.60000000      0.60000000      0.60000000      0.60000000      0.60000000      0.60000000      0.60000000      0.60000000      0.60000000      0.60000000      0.60000000      0.60000000      0.60000000      0.60000000
      0.60000000      0.60000000      0.60000000      0.60000000      0.60000000      0.60000000      0.60000000      0.60000000      0.60000000      0.60000000      0.60000000      0.60000000      0.60000000      0.60000000      0.60000000      0.60000000      0.60000000      0.60000000      0.60000000      0.60000000
      0.60000000      0.60000000      0.60000000      0.60000000      0.60000000      0.60000000      0.60000000      0.60000000</v>
    <i name="NUPDOWN">     -1.00000000</i>
    <i type="logical" name="LSORBIT"> F  </i>
    <v name="SAXIS">      0.00000000      0.00000000      1.00000000</v>
    <i type="logical" name="LSPIRAL"> F  </i>
    <v name="QSPIRAL">      0.00000000      0.00000000      0.00000000</v>
    <i type="logical" name="LZEROZ"> F  </i>
   </separator>
   <separator name="electronic exchange-correlation" >
    <i type="logical" name="LASPH"> F  </i>
    <i type="logical" name="LMETAGGA"> F  </i>
   </separator>
   <separator name="electronic convergence" >
    <i type="int" name="NELM">    40</i>
    <i type="int" name="NELMDL">     0</i>
    <i type="int" name="NELMIN">     8</i>
    <i name="ENINI">    520.00000000</i>
    <separator name="electronic convergence detail" >
     <i type="logical" name="LDIAG"> T  </i>
     <i type="logical" name="LSUBROT"> F  </i>
     <i name="WEIMIN">      0.00100000</i>
     <i name="EBREAK">      0.00000003</i>
     <i name="DEPER">      0.30000000</i>
     <i type="int" name="NRMM">     4</i>
     <i name="TIME">      0.40000000</i>
    </separator>
   </separator>
   <separator name="electronic mixer" >
    <i name="AMIX">      0.40000000</i>
    <i name="BMIX">      1.00000000</i>
    <i name="AMIN">      0.10000000</i>
    <i name="AMIX_MAG">      1.60000000</i>
    <i name="BMIX_MAG">      1.00000000</i>
    <separator name="electronic mixer details" >
     <i type="int" name="IMIX">     4</i>
     <i type="logical" name="MIXFIRST"> F  </i>
     <i type="int" name="MAXMIX">   -45</i>
     <i name="WC">    100.00000000</i>
     <i type="int" name="INIMIX">     1</i>
     <i type="int" name="MIXPRE">     1</i>
     <i type="int" name="MREMOVE">     5</i>
    </separator>
   </separator>
   <separator name="electronic dipolcorrection" >
    <i type="logical" name="LDIPOL"> F  </i>
    <i type="logical" name="LMONO"> F  </i>
    <i type="int" name="IDIPOL">     0</i>
    <i name="EPSILON">      1.00000000</i>
    <v name="DIPOL">   -100.00000000   -100.00000000   -100.00000000</v>
    <i name="EFIELD">      0.00000000</i>
   </separator>
  </separator>
  <separator name="grids" >
   <i type="int" name="NGX">    64</i>
   <i type="int" name="NGY">    64</i>
   <i type="int" name="NGZ">    90</i>
   <i type="int" name="NGXF">   128</i>
   <i type="int" name="NGYF">   128</i>
   <i type="int" name="NGZF">   180</i>
   <i type="logical" name="ADDGRID"> F  </i>
  </separator>
  <separator name="ionic" >
   <i type="int" name="NSW">    30</i>
   <i type="int" name="IBRION">     2</i>
   <i type="int" name="ISIF">     3</i>
   <i name="PSTRESS">      0.00000000</i>
   <i name="EDIFFG">     -0.03000000</i>
   <i type="int" name="NFREE">     1</i>
   <i name="POTIM">      0.50000000</i>
   <i name="SMASS">     -3.00000000</i>
   <i name="SCALEE">      1.00000000</i>
  </separator>
  <separator name="ionic md" >
   <i name="TEBEG">      0.00010000</i>
   <i name="TEEND">      0.00010000</i>
   <i type="int" name="NBLOCK">     1</i>
   <i type="int" name="KBLOCK">    30</i>
   <i type="int" name="NPACO">   256</i>
   <i name="APACO">     16.00000000</i>
  </separator>
  <separator name="symmetry" >
   <i type="int" name="ISYM">     2</i>
   <i name="SYMPREC">      0.00001000</i>
  </separator>
  <separator name="dos" >
   <i type="logical" name="LORBIT"> F  </i>
   <v name="RWIGS">     -1.00000000     -1.00000000     -1.00000000     -1.00000000</v>
   <i type="int" name="NEDOS">   301</i>
   <i name="EMIN">     10.00000000</i>
   <i name="EMAX">    -10.00000000</i>
   <i name="EFERMI">      0.00000000</i>
  </separator>
  <separator name="writing" >
   <i type="int" name="NWRITE">     2</i>
   <i type="logical" name="LWAVE"> T  </i>
   <i type="logical" name="LCHARG"> T  </i>
   <i type="logical" name="LPARD"> F  </i>
   <i type="logical" name="LVTOT"> F  </i>
   <i type="logical" name="LVHAR"> F  </i>
   <i type="logical" name="LELF"> F  </i>
   <i type="logical" name="LOPTICS"> F  </i>
   <v name="STM">      0.00000000      0.00000000      0.00000000      0.00000000      0.00000000      0.00000000      0.00000000</v>
  </separator>
  <separator name="performance" >
   <i type="int" name="NPAR">     2</i>
   <i type="int" name="NSIM">     4</i>
   <i type="int" name="NBLK">    -1</i>
   <i type="logical" name="LPLANE"> T  </i>
   <i type="logical" name="LSCALAPACK"> T  </i>
   <i type="logical" name="LSCAAWARE"> F  </i>
   <i type="logical" name="LSCALU"> F  </i>
   <i type="logical" name="LASYNC"> F  </i>
   <i type="logical" name="LORBITALREAL"> F  </i>
  </separator>
  <separator name="miscellaneous" >
   <i type="int" name="IDIOT">     3</i>
   <i type="logical" name="LMUSIC"> F  </i>
   <v name="POMASS">     87.62000000     47.88000000     55.84700000     16.00000000</v>
   <v name="DARWINR">      0.00000000      0.00000000      0.00000000      0.00000000</v>
   <v name="DARWINV">      1.00000000      1.00000000      1.00000000      1.00000000</v>
   <i type="logical" name="LCORR"> T  </i>
  </separator>
  <i type="logical" name="GGA_COMPAT"> T  </i>
  <i type="logical" name="LBERRY"> F  </i>
  <i type="int" name="ICORELEVEL">     0</i>
  <i type="logical" name="LDAU"> T  </i>
  <v type="int" name="LDAUTYPE">     2</v>
  <v type="int" name="LDAUL">     0</v>
  <v name="LDAUU">      0.00000000</v>
  <v name="LDAUJ">      0.00000000</v>
  <i type="int" name="LDAUPRINT">     1</i>
  <i type="int" name="I_CONSTRAINED_M">     0</i>
  <separator name="electronic exchange-correlation" >
   <i type="string" name="GGA">--</i>
   <i type="int" name="VOSKOWN">     0</i>
   <i type="logical" name="LHFCALC"> F  </i>
   <i type="string" name="PRECFOCK"></i>
   <i type="logical" name="LSYMGRAD"> F  </i>
   <i type="logical" name="LHFONE"> F  </i>
   <i type="logical" name="LRHFCALC"> F  </i>
   <i type="logical" name="LTHOMAS"> F  </i>
   <i type="logical" name="LMODELHF"> F  </i>
   <i name="ENCUT4O">     -1.00000000</i>
   <i type="int" name="EXXOEP">     0</i>
   <i type="int" name="FOURORBIT">     0</i>
   <i name="AEXX">      0.00000000</i>
   <i name="HFALPHA">      0.00000000</i>
   <i name="MCALPHA">      0.00000000</i>
   <i name="ALDAX">      1.00000000</i>
   <i name="AGGAX">      1.00000000</i>
   <i name="ALDAC">      1.00000000</i>
   <i name="AGGAC">      1.00000000</i>
   <i type="int" name="NKREDX">     1</i>
   <i type="int" name="NKREDY">     1</i>
   <i type="int" name="NKREDZ">     1</i>
   <i type="logical" name="SHIFTRED"> F  </i>
   <i type="logical" name="ODDONLY"> F  </i>
   <i type="logical" name="EVENONLY"> F  </i>
   <i type="int" name="LMAXFOCK">     0</i>
   <i type="int" name="NMAXFOCKAE">     0</i>
   <i type="logical" name="LFOCKAEDFT"> F  </i>
   <i name="HFSCREEN">      0.00000000</i>
   <i name="HFSCREENC">      0.00000000</i>
   <i type="int" name="NBANDSGWLOW">     0</i>
  </separator>
  <separator name="vdW DFT" >
   <i type="logical" name="LUSE_VDW"> F  </i>
   <i name="Zab_VDW">     -0.84910000</i>
   <i name="PARAM1">      0.12340000</i>
   <i name="PARAM2">      1.00000000</i>
   <i name="PARAM3">      0.00000000</i>
  </separator>
  <separator name="model GW" >
   <i type="int" name="MODEL_GW">     0</i>
   <i name="MODEL_EPS0">      8.07883203</i>
   <i name="MODEL_ALPHA">      1.00000000</i>
  </separator>
  <separator name="linear response parameters" >
   <i type="logical" name="LEPSILON"> F  </i>
   <i type="logical" name="LRPA"> F  </i>
   <i type="logical" name="LNABLA"> F  </i>
   <i type="logical" name="LVEL"> F  </i>
   <i type="int" name="KINTER">     0</i>
   <i name="CSHIFT">      0.10000000</i>
   <i name="OMEGAMAX">     -1.00000000</i>
   <i name="DEG_THRESHOLD">      0.00200000</i>
  </separator>
  <separator name="orbital magnetization" >
   <i type="logical" name="NUCIND"> F  </i>
   <v name="MAGPOS">      0.00000000      0.00000000      0.00000000</v>
   <i type="logical" name="LNICSALL"> T  </i>
   <i type="logical" name="ORBITALMAG"> F  </i>
   <i type="logical" name="LMAGBLOCH"> F  </i>
   <i type="logical" name="LCHIMAG"> F  </i>
   <i type="logical" name="LGAUGE"> T  </i>
   <i type="int" name="MAGATOM">     0</i>
   <v name="MAGDIPOL">      0.00000000      0.00000000      0.00000000</v>
   <v name="AVECCONST">      0.00000000      0.00000000      0.00000000</v>
  </separator>
  <separator name="response functions" >
   <i type="logical" name="LADDER"> F  </i>
   <i type="logical" name="LFXC"> F  </i>
   <i type="logical" name="LHARTREE"> T  </i>
   <i type="int" name="IBSE">     0</i>
   <v type="int" name="KPOINT">    -1     0     0     0</v>
   <i type="logical" name="LTCTE"> F  </i>
   <i type="logical" name="LTETE"> F  </i>
   <i type="logical" name="LTRIPLET"> F  </i>
   <i type="logical" name="LFXCEPS"> F  </i>
   <i type="logical" name="LFXHEG"> F  </i>
   <i type="int" name="NATURALO">     0</i>
   <i type="logical" name="L2ORDER"> F  </i>
   <i type="logical" name="LUSEW"> F  </i>
   <i name="ENCUTGW">     -2.00000000</i>
   <i name="ENCUTGWSOFT">     -2.00000000</i>
   <i name="ENCUTLF">     -1.00000000</i>
   <i type="int" name="LMAXMP2">    -1</i>
   <i name="SCISSOR">      0.00000000</i>
   <i type="int" name="NOMEGA">     0</i>
   <i type="int" name="NOMEGAR">     0</i>
   <i type="int" name="NBANDSGW">    -1</i>
   <i type="int" name="NBANDSO">    -1</i>
   <i type="int" name="NBANDSV">    -1</i>
   <i type="int" name="NELM">    40</i>
   <i type="int" name="NELMHF">     1</i>
   <i type="int" name="DIM">     3</i>
   <i type="int" name="ANTIRES">     0</i>
   <i name="OMEGAMAX">    -30.00000000</i>
   <i name="OMEGAMIN">    -30.00000000</i>
   <i name="OMEGATL">   -200.00000000</i>
   <i type="int" name="OMEGAGRID">     0</i>
   <i name="CSHIFT">     -0.10000000</i>
   <i type="logical" name="SELFENERGY"> F  </i>
   <i type="logical" name="LSPECTRAL"> F  </i>
   <i type="logical" name="LSPECTRALGW"> F  </i>
   <i type="logical" name="LSINGLES"> F  </i>
   <i type="logical" name="LFERMIGW"> F  </i>
   <i type="logical" name="ODDONLYGW"> F  </i>
   <i type="logical" name="EVENONLYGW"> F  </i>
   <i type="int" name="NKREDLFX">     1</i>
   <i type="int" name="NKREDLFY">     1</i>
   <i type="int" name="NKREDLFZ">     1</i>
   <i type="int" name="MAXMEM">  1800</i>
   <i type="int" name="TELESCOPE">     0</i>
   <i type="int" name="TAUPAR">     1</i>
   <i type="int" name="OMEGAPAR">    -1</i>
   <i name="LAMBDA">      1.00000000</i>
  </separator>
  <separator name="External order field" >
   <i name="OFIELD_KAPPA">      0.00000000</i>
   <v name="OFIELD_K">      0.00000000      0.00000000      0.00000000</v>
   <i name="OFIELD_Q6_NEAR">      0.00000000</i>
   <i name="OFIELD_Q6_FAR">      0.00000000</i>
   <i name="OFIELD_A">      0.00000000</i>
  </separator>
 </parameters>
 <atominfo>
  <atoms>     148 </atoms>
  <types>       4 </types>
  <array name="atoms" >
   <dimension dim="1">ion</dimension>
   <field type="string">element</field>
   <field type="int">atomtype</field>
   <set>
    <rc><c>Sr</c><c>   1</c></rc>
    <rc><c>Sr</c><c>   1</c></rc>
    <rc><c>Sr</c><c>   1</c></rc>
    <rc><c>Sr</c><c>   1</c></rc>
    <rc><c>Sr</c><c>   1</c></rc>
    <rc><c>Sr</c><c>   1</c></rc>
    <rc><c>Sr</c><c>   1</c></rc>
    <rc><c>Sr</c><c>   1</c></rc>
    <rc><c>Sr</c><c>   1</c></rc>
    <rc><c>Sr</c><c>   1</c></rc>
    <rc><c>Sr</c><c>   1</c></rc>
    <rc><c>Sr</c><c>   1</c></rc>
    <rc><c>Sr</c><c>   1</c></rc>
    <rc><c>Sr</c><c>   1</c></rc>
    <rc><c>Sr</c><c>   1</c></rc>
    <rc><c>Sr</c><c>   1</c></rc>
    <rc><c>Sr</c><c>   1</c></rc>
    <rc><c>Sr</c><c>   1</c></rc>
    <rc><c>Sr</c><c>   1</c></rc>
    <rc><c>Sr</c><c>   1</c></rc>
    <rc><c>Sr</c><c>   1</c></rc>
    <rc><c>Sr</c><c>   1</c></rc>
    <rc><c>Sr</c><c>   1</c></rc>
    <rc><c>Sr</c><c>   1</c></rc>
    <rc><c>Sr</c><c>   1</c></rc>
    <rc><c>Sr</c><c>   1</c></rc>
    <rc><c>Sr</c><c>   1</c></rc>
    <rc><c>Sr</c><c>   1</c></rc>
    <rc><c>Sr</c><c>   1</c></rc>
    <rc><c>Sr</c><c>   1</c></rc>
    <rc><c>Sr</c><c>   1</c></rc>
    <rc><c>Sr</c><c>   1</c></rc>
    <rc><c>Ti</c><c>   2</c></rc>
    <rc><c>Ti</c><c>   2</c></rc>
    <rc><c>Ti</c><c>   2</c></rc>
    <rc><c>Ti</c><c>   2</c></rc>
    <rc><c>Ti</c><c>   2</c></rc>
    <rc><c>Ti</c><c>   2</c></rc>
    <rc><c>Ti</c><c>   2</c></rc>
    <rc><c>Ti</c><c>   2</c></rc>
    <rc><c>Fe</c><c>   3</c></rc>
    <rc><c>Fe</c><c>   3</c></rc>
    <rc><c>Fe</c><c>   3</c></rc>
    <rc><c>Fe</c><c>   3</c></rc>
    <rc><c>Fe</c><c>   3</c></rc>
    <rc><c>Fe</c><c>   3</c></rc>
    <rc><c>Fe</c><c>   3</c></rc>
    <rc><c>Fe</c><c>   3</c></rc>
    <rc><c>Fe</c><c>   3</c></rc>
    <rc><c>Fe</c><c>   3</c></rc>
    <rc><c>Fe</c><c>   3</c></rc>
    <rc><c>Fe</c><c>   3</c></rc>
    <rc><c>Fe</c><c>   3</c></rc>
    <rc><c>Fe</c><c>   3</c></rc>
    <rc><c>Fe</c><c>   3</c></rc>
    <rc><c>Fe</c><c>   3</c></rc>
    <rc><c>Fe</c><c>   3</c></rc>
    <rc><c>Fe</c><c>   3</c></rc>
    <rc><c>Fe</c><c>   3</c></rc>
    <rc><c>Fe</c><c>   3</c></rc>
    <rc><c>Fe</c><c>   3</c></rc>
    <rc><c>Fe</c><c>   3</c></rc>
    <rc><c>Fe</c><c>   3</c></rc>
    <rc><c>Fe</c><c>   3</c></rc>
    <rc><c>O </c><c>   4</c></rc>
    <rc><c>O </c><c>   4</c></rc>
    <rc><c>O </c><c>   4</c></rc>
    <rc><c>O </c><c>   4</c></rc>
    <rc><c>O </c><c>   4</c></rc>
    <rc><c>O </c><c>   4</c></rc>
    <rc><c>O </c><c>   4</c></rc>
    <rc><c>O </c><c>   4</c></rc>
    <rc><c>O </c><c>   4</c></rc>
    <rc><c>O </c><c>   4</c></rc>
    <rc><c>O </c><c>   4</c></rc>
    <rc><c>O </c><c>   4</c></rc>
    <rc><c>O </c><c>   4</c></rc>
    <rc><c>O </c><c>   4</c></rc>
    <rc><c>O </c><c>   4</c></rc>
    <rc><c>O </c><c>   4</c></rc>
    <rc><c>O </c><c>   4</c></rc>
    <rc><c>O </c><c>   4</c></rc>
    <rc><c>O </c><c>   4</c></rc>
    <rc><c>O </c><c>   4</c></rc>
    <rc><c>O </c><c>   4</c></rc>
    <rc><c>O </c><c>   4</c></rc>
    <rc><c>O </c><c>   4</c></rc>
    <rc><c>O </c><c>   4</c></rc>
    <rc><c>O </c><c>   4</c></rc>
    <rc><c>O </c><c>   4</c></rc>
    <rc><c>O </c><c>   4</c></rc>
    <rc><c>O </c><c>   4</c></rc>
    <rc><c>O </c><c>   4</c></rc>
    <rc><c>O </c><c>   4</c></rc>
    <rc><c>O </c><c>   4</c></rc>
    <rc><c>O </c><c>   4</c></rc>
    <rc><c>O </c><c>   4</c></rc>
    <rc><c>O </c><c>   4</c></rc>
    <rc><c>O </c><c>   4</c></rc>
    <rc><c>O </c><c>   4</c></rc>
    <rc><c>O </c><c>   4</c></rc>
    <rc><c>O </c><c>   4</c></rc>
    <rc><c>O </c><c>   4</c></rc>
    <rc><c>O </c><c>   4</c></rc>
    <rc><c>O </c><c>   4</c></rc>
    <rc><c>O </c><c>   4</c></rc>
    <rc><c>O </c><c>   4</c></rc>
    <rc><c>O </c><c>   4</c></rc>
    <rc><c>O </c><c>   4</c></rc>
    <rc><c>O </c><c>   4</c></rc>
    <rc><c>O </c><c>   4</c></rc>
    <rc><c>O </c><c>   4</c></rc>
    <rc><c>O </c><c>   4</c></rc>
    <rc><c>O </c><c>   4</c></rc>
    <rc><c>O </c><c>   4</c></rc>
    <rc><c>O </c><c>   4</c></rc>
    <rc><c>O </c><c>   4</c></rc>
    <rc><c>O </c><c>   4</c></rc>
    <rc><c>O </c><c>   4</c></rc>
    <rc><c>O </c><c>   4</c></rc>
    <rc><c>O </c><c>   4</c></rc>
    <rc><c>O </c><c>   4</c></rc>
    <rc><c>O </c><c>   4</c></rc>
    <rc><c>O </c><c>   4</c></rc>
    <rc><c>O </c><c>   4</c></rc>
    <rc><c>O </c><c>   4</c></rc>
    <rc><c>O </c><c>   4</c></rc>
    <rc><c>O </c><c>   4</c></rc>
    <rc><c>O </c><c>   4</c></rc>
    <rc><c>O </c><c>   4</c></rc>
    <rc><c>O </c><c>   4</c></rc>
    <rc><c>O </c><c>   4</c></rc>
    <rc><c>O </c><c>   4</c></rc>
    <rc><c>O </c><c>   4</c></rc>
    <rc><c>O </c><c>   4</c></rc>
    <rc><c>O </c><c>   4</c></rc>
    <rc><c>O </c><c>   4</c></rc>
    <rc><c>O </c><c>   4</c></rc>
    <rc><c>O </c><c>   4</c></rc>
    <rc><c>O </c><c>   4</c></rc>
    <rc><c>O </c><c>   4</c></rc>
    <rc><c>O </c><c>   4</c></rc>
    <rc><c>O </c><c>   4</c></rc>
    <rc><c>O </c><c>   4</c></rc>
    <rc><c>O </c><c>   4</c></rc>
    <rc><c>O </c><c>   4</c></rc>
    <rc><c>O </c><c>   4</c></rc>
    <rc><c>O </c><c>   4</c></rc>
   </set>
  </array>
  <array name="atomtypes" >
   <dimension dim="1">type</dimension>
   <field type="int">atomspertype</field>
   <field type="string">element</field>
   <field>mass</field>
   <field>valence</field>
   <field type="string">pseudopotential</field>
   <set>
    <rc><c>  32</c><c>Sr</c><c>     87.62000000</c><c>     10.00000000</c><c>  PAW_PBE Sr_sv 07Sep2000               </c></rc>
    <rc><c>   8</c><c>Ti</c><c>     47.88000000</c><c>      4.00000000</c><c>  PAW_PBE Ti 08Apr2002                  </c></rc>
    <rc><c>  24</c><c>Fe</c><c>     55.84700000</c><c>      8.00000000</c><c>  PAW_PBE Fe 06Sep2000                  </c></rc>
    <rc><c>  84</c><c>O </c><c>     16.00000000</c><c>      6.00000000</c><c>  PAW_PBE O 08Apr2002                   </c></rc>
   </set>
  </array>
 </atominfo>
 <structure name="initialpos" >
  <crystal>
   <varray name="basis" >
    <v>      11.41558968      -0.01555091       0.00000000 </v>
    <v>      -0.01637579      11.33024047       0.00000000 </v>
    <v>       0.00000000       0.00000000      15.40715393 </v>
   </varray>
   <i name="volume">   1992.77856829 </i>
   <varray name="rec_basis" >
    <v>       0.08759968       0.00012661       0.00000000 </v>
    <v>       0.00012023       0.08825955       0.00000000 </v>
    <v>       0.00000000       0.00000000       0.06490491 </v>
   </varray>
  </crystal>
  <varray name="positions" >
   <v>       0.00172781       0.24374711       0.12668992 </v>
   <v>       0.00301626       0.23772795       0.62716723 </v>
   <v>       0.98363168       0.75358253       0.12401359 </v>
   <v>       0.98126521       0.75593401       0.62544538 </v>
   <v>       0.49998850       0.23707293       0.12860130 </v>
   <v>       0.49608026       0.23617200       0.62742454 </v>
   <v>       0.50159581       0.77314822       0.12707174 </v>
   <v>       0.50124139       0.77251287       0.62628313 </v>
   <v>       0.00172781       0.24374711       0.37331008 </v>
   <v>       0.00301626       0.23772795       0.87283277 </v>
   <v>       0.98363168       0.75358253       0.37598641 </v>
   <v>       0.98126521       0.75593401       0.87455462 </v>
   <v>       0.49998850       0.23707293       0.37139870 </v>
   <v>       0.49608026       0.23617200       0.87257546 </v>
   <v>       0.50159581       0.77314822       0.37292826 </v>
   <v>       0.50124139       0.77251287       0.87371687 </v>
   <v>       0.25102492       0.01341570       0.12734583 </v>
   <v>       0.24611484       0.01199614       0.62870884 </v>
   <v>       0.24854732       0.47794262       0.12559449 </v>
   <v>       0.24732103       0.47712822       0.62627679 </v>
   <v>       0.74920961       0.00604828       0.12739144 </v>
   <v>       0.75247116       0.00166008       0.62619740 </v>
   <v>       0.76790021       0.49704480       0.12627900 </v>
   <v>       0.76514787       0.49893697       0.62469258 </v>
   <v>       0.25102492       0.01341570       0.37265417 </v>
   <v>       0.24611484       0.01199614       0.87129116 </v>
   <v>       0.24854732       0.47794262       0.37440551 </v>
   <v>       0.24732103       0.47712822       0.87372321 </v>
   <v>       0.74920961       0.00604828       0.37260856 </v>
   <v>       0.75247116       0.00166008       0.87380260 </v>
   <v>       0.76790021       0.49704480       0.37372100 </v>
   <v>       0.76514787       0.49893697       0.87530742 </v>
   <v>       0.75600439       0.24982313       0.49856149 </v>
   <v>       0.50241024       0.00270300       0.50006482 </v>
   <v>       0.75258466       0.24880770       0.75000000 </v>
   <v>       0.50241024       0.00270300       0.99993518 </v>
   <v>       0.24648348       0.24609761       0.50002969 </v>
   <v>       0.99714396       0.00094703       0.25000000 </v>
   <v>       0.24648348       0.24609761       0.99997031 </v>
   <v>       0.75600439       0.24982313       0.00143851 </v>
   <v>       0.24791275       0.76118488       0.75000000 </v>
   <v>       0.99607089       0.49608853       0.99913701 </v>
   <v>       0.99607089       0.49608853       0.50086299 </v>
   <v>       0.24676301       0.76429408       0.50020032 </v>
   <v>       0.75154039       0.75465131       0.75000000 </v>
   <v>       0.50370093       0.48516965       0.49973866 </v>
   <v>       0.75227100       0.75451430       0.49901497 </v>
   <v>       0.99648012       0.49420972       0.75000000 </v>
   <v>       0.24676301       0.76429408       0.99979968 </v>
   <v>       0.99678037       0.99804186       0.75000000 </v>
   <v>       0.24933499       0.24733774       0.25000000 </v>
   <v>       0.50584485       0.48673219       0.75000000 </v>
   <v>       0.24681439       0.76336302       0.25000000 </v>
   <v>       0.50299136       0.00532441       0.25000000 </v>
   <v>       0.24700553       0.24552225       0.75000000 </v>
   <v>       0.99637321       0.99749383       0.50059896 </v>
   <v>       0.50093268       0.00355403       0.75000000 </v>
   <v>       0.75227100       0.75451430       0.00098503 </v>
   <v>       0.75289459       0.25108138       0.25000000 </v>
   <v>       0.99847214       0.49460228       0.25000000 </v>
   <v>       0.50370093       0.48516965       0.00026134 </v>
   <v>       0.99637321       0.99749383       0.99940104 </v>
   <v>       0.50495520       0.48824573       0.25000000 </v>
   <v>       0.75334149       0.75482565       0.25000000 </v>
   <v>       0.03011330       0.53374657       0.62431211 </v>
   <v>       0.63646232       0.39419429       0.49879343 </v>
   <v>       0.12408728       0.12109165       0.25000000 </v>
   <v>       0.62292302       0.13285029       0.25000000 </v>
   <v>       0.62255579       0.13416651       0.75000000 </v>
   <v>       0.50065094       0.54540335       0.62436778 </v>
   <v>       0.37396881       0.12373839       0.75000000 </v>
   <v>       0.38153887       0.38391293       0.25000000 </v>
   <v>       0.38015819       0.38562541       0.75000000 </v>
   <v>       0.37297944       0.86407221       0.25000000 </v>
   <v>       0.37175065       0.86498848       0.75000000 </v>
   <v>       0.88788756       0.37063293       0.25000000 </v>
   <v>       0.88434961       0.37022989       0.75000000 </v>
   <v>       0.86838794       0.87609497       0.25000000 </v>
   <v>       0.86447496       0.87579322       0.75000000 </v>
   <v>       0.71983694       0.71995894       0.62371451 </v>
   <v>       0.87331360       0.62484594       0.00021756 </v>
   <v>       0.61201117       0.86551895       0.49932372 </v>
   <v>       0.87540003       0.12157178       0.25000000 </v>
   <v>       0.86939934       0.12556557       0.75000000 </v>
   <v>       0.87675438       0.62468647       0.25000000 </v>
   <v>       0.87109653       0.62153406       0.75000000 </v>
   <v>       0.13109227       0.11980512       0.50013708 </v>
   <v>       0.13109227       0.11980512       0.99986292 </v>
   <v>       0.11353824       0.85423173       0.25000000 </v>
   <v>       0.11244033       0.84680902       0.75000000 </v>
   <v>       0.64141119       0.40451638       0.25000000 </v>
   <v>       0.62582813       0.12659572       0.49959039 </v>
   <v>       0.61948296       0.86728221       0.25000000 </v>
   <v>       0.10852635       0.84514120       0.99905649 </v>
   <v>       0.37554716       0.38501183       0.99942825 </v>
   <v>       0.37554716       0.38501183       0.50057175 </v>
   <v>       0.36871411       0.87310806       0.00053567 </v>
   <v>       0.36871411       0.87310806       0.49946433 </v>
   <v>       0.88180634       0.37411067       0.99913524 </v>
   <v>       0.88180634       0.37411067       0.50086476 </v>
   <v>       0.86054748       0.87981039       0.49801176 </v>
   <v>       0.03011330       0.53374657       0.87568789 </v>
   <v>       0.49499293       0.54674224       0.12347451 </v>
   <v>       0.74593749       0.25547632       0.87555482 </v>
   <v>       0.62582813       0.12659572       0.00040961 </v>
   <v>       0.37284760       0.12374765       0.25000000 </v>
   <v>       0.13580583       0.38771566       0.25000000 </v>
   <v>       0.13135946       0.37965552       0.99937889 </v>
   <v>       0.13135946       0.37965552       0.50062111 </v>
   <v>       0.10852635       0.84514120       0.50094351 </v>
   <v>       0.71983694       0.71995894       0.87628549 </v>
   <v>       0.49873877       0.00233606       0.87561659 </v>
   <v>       0.61201117       0.86551895       0.00067628 </v>
   <v>       0.64056039       0.39857595       0.75000000 </v>
   <v>       0.37871016       0.12875813       0.00021552 </v>
   <v>       0.37871016       0.12875813       0.49978448 </v>
   <v>       0.49759262       0.00226270       0.37556974 </v>
   <v>       0.87563538       0.12953126       0.00050096 </v>
   <v>       0.87563538       0.12953126       0.49949904 </v>
   <v>       0.74593749       0.25547632       0.62444518 </v>
   <v>       0.87331360       0.62484594       0.49978244 </v>
   <v>       0.00389077       0.99638783       0.12477106 </v>
   <v>       0.00006324       0.99738552       0.62462227 </v>
   <v>       0.03015680       0.53139223       0.12296762 </v>
   <v>       0.49873877       0.00233606       0.62438341 </v>
   <v>       0.49499293       0.54674224       0.37652549 </v>
   <v>       0.13290420       0.38633655       0.75000000 </v>
   <v>       0.00389077       0.99638783       0.37522894 </v>
   <v>       0.03015680       0.53139223       0.37703238 </v>
   <v>       0.00006324       0.99738552       0.87537773 </v>
   <v>       0.49759262       0.00226270       0.12443026 </v>
   <v>       0.61632978       0.86541188       0.75000000 </v>
   <v>       0.50065094       0.54540335       0.87563222 </v>
   <v>       0.25262332       0.24921537       0.37536218 </v>
   <v>       0.25397679       0.24875933       0.87544548 </v>
   <v>       0.25560639       0.70432063       0.37503896 </v>
   <v>       0.26095093       0.70258723       0.87629636 </v>
   <v>       0.74867862       0.25475954       0.37520883 </v>
   <v>       0.12419476       0.12150483       0.75000000 </v>
   <v>       0.71914663       0.71736562       0.37453751 </v>
   <v>       0.63646232       0.39419429       0.00120657 </v>
   <v>       0.25262332       0.24921537       0.12463782 </v>
   <v>       0.25397679       0.24875933       0.62455452 </v>
   <v>       0.25560639       0.70432063       0.12496104 </v>
   <v>       0.26095093       0.70258723       0.62370364 </v>
   <v>       0.74867862       0.25475954       0.12479117 </v>
   <v>       0.86054748       0.87981039       0.00198824 </v>
   <v>       0.71914663       0.71736562       0.12546249 </v>
  </varray>
 </structure>
 <calculation>
  <scstep>
   <time name="dav">  154.03  154.04</time>
   <time name="total">  156.39  156.46</time>
   <energy>
    <i name="alphaZ">   5639.06961524 </i>
    <i name="ewald"> -63120.84916846 </i>
    <i name="hartreedc"> -18626.20179872 </i>
    <i name="XCdc">   3407.97327604 </i>
    <i name="pawpsdc"> 116104.00289006 </i>
    <i name="pawaedc">-115610.81099219 </i>
    <i name="eentropy">     -0.00000000 </i>
    <i name="bandstr">  -7100.60606732 </i>
    <i name="atom">  78316.90445604 </i>
    <i name="e_fr_energy">   -990.51778931 </i>
    <i name="e_wo_entrp">   -990.51778931 </i>
    <i name="e_0_energy">   -990.51778931 </i>
   </energy>
  </scstep>
  <scstep>
   <time name="diag">   16.56   16.56</time>
   <time name="diis">   14.99   14.99</time>
   <time name="orth">    9.40    9.40</time>
   <time name="total">   43.31   43.36</time>
   <energy>
    <i name="e_fr_energy">   -990.51778732 </i>
    <i name="e_wo_entrp">   -990.51778732 </i>
    <i name="e_0_energy">   -990.51778732 </i>
   </energy>
  </scstep>
  <scstep>
   <time name="diag">   16.55   16.56</time>
   <time name="diis">   14.16   14.16</time>
   <time name="orth">    9.39    9.39</time>
   <time name="total">   42.46   42.48</time>
   <energy>
    <i name="e_fr_energy">   -990.51778717 </i>
    <i name="e_wo_entrp">   -990.51778717 </i>
    <i name="e_0_energy">   -990.51778717 </i>
   </energy>
  </scstep>
  <scstep>
   <time name="diag">   16.65   16.64</time>
   <time name="diis">   11.58   11.58</time>
   <time name="orth">    9.40    9.40</time>
   <time name="total">   39.99   40.08</time>
   <energy>
    <i name="e_fr_energy">   -990.51778699 </i>
    <i name="e_wo_entrp">   -990.51778699 </i>
    <i name="e_0_energy">   -990.51778699 </i>
   </energy>
  </scstep>
  <scstep>
   <time name="diag">   16.57   16.56</time>
   <time name="diis">   11.46   11.46</time>
   <time name="orth">    9.39    9.39</time>
   <time name="total">   39.78   39.86</time>
   <energy>
    <i name="e_fr_energy">   -990.51778698 </i>
    <i name="e_wo_entrp">   -990.51778698 </i>
    <i name="e_0_energy">   -990.51778698 </i>
   </energy>
  </scstep>
  <scstep>
   <time name="diag">   16.57   16.57</time>
   <time name="diis">   11.16   11.16</time>
   <time name="orth">    9.40    9.40</time>
   <time name="total">   39.49   39.59</time>
   <energy>
    <i name="e_fr_energy">   -990.51778698 </i>
    <i name="e_wo_entrp">   -990.51778698 </i>
    <i name="e_0_energy">   -990.51778698 </i>
   </energy>
  </scstep>
  <scstep>
   <time name="diag">   16.58   16.58</time>
   <time name="diis">   10.98   10.98</time>
   <time name="orth">    9.38    9.38</time>
   <time name="total">   39.33   39.40</time>
   <energy>
    <i name="e_fr_energy">   -990.51778700 </i>
    <i name="e_wo_entrp">   -990.51778700 </i>
    <i name="e_0_energy">   -990.51778700 </i>
   </energy>
  </scstep>
  <scstep>
   <time name="diag">   16.59   16.59</time>
   <time name="diis">   10.69   10.69</time>
   <time name="orth">    9.37    9.37</time>
   <time name="total">   37.23   37.28</time>
   <energy>
    <i name="alphaZ">   5639.06961524 </i>
    <i name="ewald"> -63120.84916846 </i>
    <i name="hartreedc"> -18626.19931871 </i>
    <i name="XCdc">   3407.97412168 </i>
    <i name="pawpsdc"> 116103.66552373 </i>
    <i name="pawaedc">-115610.46807847 </i>
    <i name="eentropy">     -0.00000000 </i>
    <i name="bandstr">  -7100.61493805 </i>
    <i name="atom">  78316.90445604 </i>
    <i name="e_fr_energy">   -990.51778700 </i>
    <i name="e_wo_entrp">   -990.51778700 </i>
    <i name="e_0_energy">   -990.51778700 </i>
   </energy>
  </scstep>
  <structure>
   <crystal>
    <varray name="basis" >
     <v>      11.41558968      -0.01555091       0.00000000 </v>
     <v>      -0.01637579      11.33024047       0.00000000 </v>
     <v>       0.00000000       0.00000000      15.40715393 </v>
    </varray>
    <i name="volume">   1992.77856829 </i>
    <varray name="rec_basis" >
     <v>       0.08759968       0.00012661       0.00000000 </v>
     <v>       0.00012023       0.08825955       0.00000000 </v>
     <v>       0.00000000       0.00000000       0.06490491 </v>
    </varray>
   </crystal>
   <varray name="positions" >
    <v>       0.00172781       0.24374711       0.12668992 </v>
    <v>       0.00301626       0.23772795       0.62716723 </v>
    <v>       0.98363168       0.75358253       0.12401359 </v>
    <v>       0.98126521       0.75593401       0.62544538 </v>
    <v>       0.49998850       0.23707293       0.12860130 </v>
    <v>       0.49608026       0.23617200       0.62742454 </v>
    <v>       0.50159581       0.77314822       0.12707174 </v>
    <v>       0.50124139       0.77251287       0.62628313 </v>
    <v>       0.00172781       0.24374711       0.37331008 </v>
    <v>       0.00301626       0.23772795       0.87283277 </v>
    <v>       0.98363168       0.75358253       0.37598641 </v>
    <v>       0.98126521       0.75593401       0.87455462 </v>
    <v>       0.49998850       0.23707293       0.37139870 </v>
    <v>       0.49608026       0.23617200       0.87257546 </v>
    <v>       0.50159581       0.77314822       0.37292826 </v>
    <v>       0.50124139       0.77251287       0.87371687 </v>
    <v>       0.25102492       0.01341570       0.12734583 </v>
    <v>       0.24611484       0.01199614       0.62870884 </v>
    <v>       0.24854732       0.47794262       0.12559449 </v>
    <v>       0.24732103       0.47712822       0.62627679 </v>
    <v>       0.74920961       0.00604828       0.12739144 </v>
    <v>       0.75247116       0.00166008       0.62619740 </v>
    <v>       0.76790021       0.49704480       0.12627900 </v>
    <v>       0.76514787       0.49893697       0.62469258 </v>
    <v>       0.25102492       0.01341570       0.37265417 </v>
    <v>       0.24611484       0.01199614       0.87129116 </v>
    <v>       0.24854732       0.47794262       0.37440551 </v>
    <v>       0.24732103       0.47712822       0.87372321 </v>
    <v>       0.74920961       0.00604828       0.37260856 </v>
    <v>       0.75247116       0.00166008       0.87380260 </v>
    <v>       0.76790021       0.49704480       0.37372100 </v>
    <v>       0.76514787       0.49893697       0.87530742 </v>
    <v>       0.75600439       0.24982313       0.49856149 </v>
    <v>       0.50241024       0.00270300       0.50006482 </v>
    <v>       0.75258466       0.24880770       0.75000000 </v>
    <v>       0.50241024       0.00270300       0.99993518 </v>
    <v>       0.24648348       0.24609761       0.50002969 </v>
    <v>       0.99714396       0.00094703       0.25000000 </v>
    <v>       0.24648348       0.24609761       0.99997031 </v>
    <v>       0.75600439       0.24982313       0.00143851 </v>
    <v>       0.24791275       0.76118488       0.75000000 </v>
    <v>       0.99607089       0.49608853       0.99913701 </v>
    <v>       0.99607089       0.49608853       0.50086299 </v>
    <v>       0.24676301       0.76429408       0.50020032 </v>
    <v>       0.75154039       0.75465131       0.75000000 </v>
    <v>       0.50370093       0.48516965       0.49973866 </v>
    <v>       0.75227100       0.75451430       0.49901497 </v>
    <v>       0.99648012       0.49420972       0.75000000 </v>
    <v>       0.24676301       0.76429408       0.99979968 </v>
    <v>       0.99678037       0.99804186       0.75000000 </v>
    <v>       0.24933499       0.24733774       0.25000000 </v>
    <v>       0.50584485       0.48673219       0.75000000 </v>
    <v>       0.24681439       0.76336302       0.25000000 </v>
    <v>       0.50299136       0.00532441       0.25000000 </v>
    <v>       0.24700553       0.24552225       0.75000000 </v>
    <v>       0.99637321       0.99749383       0.50059896 </v>
    <v>       0.50093268       0.00355403       0.75000000 </v>
    <v>       0.75227100       0.75451430       0.00098503 </v>
    <v>       0.75289459       0.25108138       0.25000000 </v>
    <v>       0.99847214       0.49460228       0.25000000 </v>
    <v>       0.50370093       0.48516965       0.00026134 </v>
    <v>       0.99637321       0.99749383       0.99940104 </v>
    <v>       0.50495520       0.48824573       0.25000000 </v>
    <v>       0.75334149       0.75482565       0.25000000 </v>
    <v>       0.03011330       0.53374657       0.62431211 </v>
    <v>       0.63646232       0.39419429       0.49879343 </v>
    <v>       0.12408728       0.12109165       0.25000000 </v>
    <v>       0.62292302       0.13285029       0.25000000 </v>
    <v>       0.62255579       0.13416651       0.75000000 </v>
    <v>       0.50065094       0.54540335       0.62436778 </v>
    <v>       0.37396881       0.12373839       0.75000000 </v>
    <v>       0.38153887       0.38391293       0.25000000 </v>
    <v>       0.38015819       0.38562541       0.75000000 </v>
    <v>       0.37297944       0.86407221       0.25000000 </v>
    <v>       0.37175065       0.86498848       0.75000000 </v>
    <v>       0.88788756       0.37063293       0.25000000 </v>
    <v>       0.88434961       0.37022989       0.75000000 </v>
    <v>       0.86838794       0.87609497       0.25000000 </v>
    <v>       0.86447496       0.87579322       0.75000000 </v>
    <v>       0.71983694       0.71995894       0.62371451 </v>
    <v>       0.87331360       0.62484594       0.00021756 </v>
    <v>       0.61201117       0.86551895       0.49932372 </v>
    <v>       0.87540003       0.12157178       0.25000000 </v>
    <v>       0.86939934       0.12556557       0.75000000 </v>
    <v>       0.87675438       0.62468647       0.25000000 </v>
    <v>       0.87109653       0.62153406       0.75000000 </v>
    <v>       0.13109227       0.11980512       0.50013708 </v>
    <v>       0.13109227       0.11980512       0.99986292 </v>
    <v>       0.11353824       0.85423173       0.25000000 </v>
    <v>       0.11244033       0.84680902       0.75000000 </v>
    <v>       0.64141119       0.40451638       0.25000000 </v>
    <v>       0.62582813       0.12659572       0.49959039 </v>
    <v>       0.61948296       0.86728221       0.25000000 </v>
    <v>       0.10852635       0.84514120       0.99905649 </v>
    <v>       0.37554716       0.38501183       0.99942825 </v>
    <v>       0.37554716       0.38501183       0.50057175 </v>
    <v>       0.36871411       0.87310806       0.00053567 </v>
    <v>       0.36871411       0.87310806       0.49946433 </v>
    <v>       0.88180634       0.37411067       0.99913524 </v>
    <v>       0.88180634       0.37411067       0.50086476 </v>
    <v>       0.86054748       0.87981039       0.49801176 </v>
    <v>       0.03011330       0.53374657       0.87568789 </v>
    <v>       0.49499293       0.54674224       0.12347451 </v>
    <v>       0.74593749       0.25547632       0.87555482 </v>
    <v>       0.62582813       0.12659572       0.00040961 </v>
    <v>       0.37284760       0.12374765       0.25000000 </v>
    <v>       0.13580583       0.38771566       0.25000000 </v>
    <v>       0.13135946       0.37965552       0.99937889 </v>
    <v>       0.13135946       0.37965552       0.50062111 </v>
    <v>       0.10852635       0.84514120       0.50094351 </v>
    <v>       0.71983694       0.71995894       0.87628549 </v>
    <v>       0.49873877       0.00233606       0.87561659 </v>
    <v>       0.61201117       0.86551895       0.00067628 </v>
    <v>       0.64056039       0.39857595       0.75000000 </v>
    <v>       0.37871016       0.12875813       0.00021552 </v>
    <v>       0.37871016       0.12875813       0.49978448 </v>
    <v>       0.49759262       0.00226270       0.37556974 </v>
    <v>       0.87563538       0.12953126       0.00050096 </v>
    <v>       0.87563538       0.12953126       0.49949904 </v>
    <v>       0.74593749       0.25547632       0.62444518 </v>
    <v>       0.87331360       0.62484594       0.49978244 </v>
    <v>       0.00389077       0.99638783       0.12477106 </v>
    <v>       0.00006324       0.99738552       0.62462227 </v>
    <v>       0.03015680       0.53139223       0.12296762 </v>
    <v>       0.49873877       0.00233606       0.62438341 </v>
    <v>       0.49499293       0.54674224       0.37652549 </v>
    <v>       0.13290420       0.38633655       0.75000000 </v>
    <v>       0.00389077       0.99638783       0.37522894 </v>
    <v>       0.03015680       0.53139223       0.37703238 </v>
    <v>       0.00006324       0.99738552       0.87537773 </v>
    <v>       0.49759262       0.00226270       0.12443026 </v>
    <v>       0.61632978       0.86541188       0.75000000 </v>
    <v>       0.50065094       0.54540335       0.87563222 </v>
    <v>       0.25262332       0.24921537       0.37536218 </v>
    <v>       0.25397679       0.24875933       0.87544548 </v>
    <v>       0.25560639       0.70432063       0.37503896 </v>
    <v>       0.26095093       0.70258723       0.87629636 </v>
    <v>       0.74867862       0.25475954       0.37520883 </v>
    <v>       0.12419476       0.12150483       0.75000000 </v>
    <v>       0.71914663       0.71736562       0.37453751 </v>
    <v>       0.63646232       0.39419429       0.00120657 </v>
    <v>       0.25262332       0.24921537       0.12463782 </v>
    <v>       0.25397679       0.24875933       0.62455452 </v>
    <v>       0.25560639       0.70432063       0.12496104 </v>
    <v>       0.26095093       0.70258723       0.62370364 </v>
    <v>       0.74867862       0.25475954       0.12479117 </v>
    <v>       0.86054748       0.87981039       0.00198824 </v>
    <v>       0.71914663       0.71736562       0.12546249 </v>
   </varray>
  </structure>
  <varray name="forces" >
   <v>      -0.00296690       0.00320486       0.00096005 </v>
   <v>       0.00083173       0.00094287      -0.00627018 </v>
   <v>      -0.00545656      -0.00298025      -0.01108089 </v>
   <v>      -0.00543980      -0.00172793      -0.00463653 </v>
   <v>      -0.00365796       0.00438863      -0.00105258 </v>
   <v>      -0.00958346       0.00934726      -0.00579780 </v>
   <v>       0.00530252       0.00396283      -0.01179536 </v>
   <v>      -0.00382832       0.00317247      -0.01004894 </v>
   <v>      -0.00296690       0.00320486      -0.00096005 </v>
   <v>       0.00083173       0.00094287       0.00627018 </v>
   <v>      -0.00545656      -0.00298025       0.01108089 </v>
   <v>      -0.00543980      -0.00172793       0.00463653 </v>
   <v>      -0.00365796       0.00438863       0.00105258 </v>
   <v>      -0.00958346       0.00934726       0.00579780 </v>
   <v>       0.00530252       0.00396283       0.01179536 </v>
   <v>      -0.00382832       0.00317247       0.01004894 </v>
   <v>       0.00393935       0.00255143       0.00435118 </v>
   <v>       0.00655994      -0.00251772       0.00020893 </v>
   <v>      -0.00344397      -0.02087435       0.00400630 </v>
   <v>      -0.00397127      -0.01808767      -0.00069649 </v>
   <v>       0.00237959       0.00477081      -0.00120519 </v>
   <v>       0.00584153      -0.00524232       0.00074217 </v>
   <v>      -0.00454331       0.00082864       0.00133378 </v>
   <v>      -0.00022481       0.00586478       0.00239332 </v>
   <v>       0.00393935       0.00255143      -0.00435118 </v>
   <v>       0.00655994      -0.00251772      -0.00020893 </v>
   <v>      -0.00344397      -0.02087435      -0.00400630 </v>
   <v>      -0.00397127      -0.01808767       0.00069649 </v>
   <v>       0.00237959       0.00477081       0.00120519 </v>
   <v>       0.00584153      -0.00524232      -0.00074217 </v>
   <v>      -0.00454331       0.00082864      -0.00133378 </v>
   <v>      -0.00022481       0.00586478      -0.00239332 </v>
   <v>      -0.01092955      -0.00361190      -0.06007614 </v>
   <v>       0.00431995       0.00150952      -0.01739581 </v>
   <v>       0.00163266      -0.00864160      -0.00000000 </v>
   <v>       0.00431995       0.00150952       0.01739581 </v>
   <v>      -0.01285209       0.02450860      -0.00756924 </v>
   <v>      -0.00431580       0.01824096      -0.00000000 </v>
   <v>      -0.01285209       0.02450860       0.00756924 </v>
   <v>      -0.01092955      -0.00361190       0.06007614 </v>
   <v>      -0.02145336       0.00520384      -0.00000000 </v>
   <v>      -0.00695151      -0.01031132       0.00584005 </v>
   <v>      -0.00695151      -0.01031132      -0.00584005 </v>
   <v>      -0.01995831       0.01243674       0.00770579 </v>
   <v>      -0.00799618      -0.00508214      -0.00000000 </v>
   <v>      -0.00187273       0.00980309       0.00594174 </v>
   <v>       0.01349565      -0.00790307       0.00398537 </v>
   <v>       0.00007527       0.00778526      -0.00000000 </v>
   <v>      -0.01995831       0.01243674      -0.00770579 </v>
   <v>      -0.00368507      -0.00294032      -0.00000000 </v>
   <v>       0.00633284      -0.00036329      -0.00000000 </v>
   <v>      -0.00015329       0.01412986      -0.00000000 </v>
   <v>      -0.00869894       0.00715759      -0.00000000 </v>
   <v>      -0.01291537       0.00396745      -0.00000000 </v>
   <v>       0.01980192      -0.00852578      -0.00000000 </v>
   <v>       0.00277469       0.00541163      -0.00768534 </v>
   <v>      -0.00323459      -0.00374668      -0.00000000 </v>
   <v>       0.01349565      -0.00790307      -0.00398537 </v>
   <v>       0.00921212      -0.00721582      -0.00000000 </v>
   <v>      -0.01274105      -0.03017667      -0.00000000 </v>
   <v>      -0.00187273       0.00980309      -0.00594174 </v>
   <v>       0.00277469       0.00541163       0.00768534 </v>
   <v>       0.00853192      -0.01171110      -0.00000000 </v>
   <v>      -0.00169190      -0.00264851      -0.00000000 </v>
   <v>      -0.00491211      -0.00326820       0.00601910 </v>
   <v>       0.01968726      -0.01350659       0.00415123 </v>
   <v>       0.00189852       0.00238985      -0.00000000 </v>
   <v>       0.00857177       0.00417798      -0.00000000 </v>
   <v>       0.00386090      -0.00053119      -0.00000000 </v>
   <v>      -0.00639676       0.00418515       0.00149682 </v>
   <v>       0.00038957       0.01358378      -0.00000000 </v>
   <v>      -0.00602570       0.00703083      -0.00000000 </v>
   <v>      -0.01448297       0.01259696      -0.00000000 </v>
   <v>       0.00376049      -0.00912811      -0.00000000 </v>
   <v>      -0.00665149       0.00467673      -0.00000000 </v>
   <v>       0.00418141       0.01446051      -0.00000000 </v>
   <v>      -0.01384547      -0.00008267      -0.00000000 </v>
   <v>       0.00019732       0.00460770      -0.00000000 </v>
   <v>       0.00306430       0.00457709      -0.00000000 </v>
   <v>      -0.00039839       0.00642048       0.00155128 </v>
   <v>       0.01111793      -0.00268161      -0.00194542 </v>
   <v>       0.00519805      -0.00087431       0.00259195 </v>
   <v>       0.00490507      -0.00160997      -0.00000000 </v>
   <v>       0.00776527       0.02005334      -0.00000000 </v>
   <v>       0.00228019       0.01753694      -0.00000000 </v>
   <v>       0.00567556       0.00160697      -0.00000000 </v>
   <v>      -0.01933306       0.01422075      -0.00110557 </v>
   <v>      -0.01933306       0.01422075       0.00110557 </v>
   <v>      -0.00000442      -0.00595611      -0.00000000 </v>
   <v>       0.01196871      -0.00025877      -0.00000000 </v>
   <v>       0.00603426      -0.00843736      -0.00000000 </v>
   <v>      -0.00258621      -0.00319238       0.00857037 </v>
   <v>       0.01800155      -0.01535646      -0.00000000 </v>
   <v>       0.02708893      -0.00601699       0.00008758 </v>
   <v>      -0.00633776      -0.00476615       0.00023649 </v>
   <v>      -0.00633776      -0.00476615      -0.00023649 </v>
   <v>       0.00146184      -0.01145001      -0.00724544 </v>
   <v>       0.00146184      -0.01145001       0.00724544 </v>
   <v>       0.00244329       0.00505823      -0.00320220 </v>
   <v>       0.00244329       0.00505823       0.00320220 </v>
   <v>       0.01419901      -0.00567676      -0.00057075 </v>
   <v>      -0.00491211      -0.00326820      -0.00601910 </v>
   <v>       0.00024846       0.00662320       0.00134300 </v>
   <v>       0.00242906       0.00015294      -0.01124798 </v>
   <v>      -0.00258621      -0.00319238      -0.00857037 </v>
   <v>       0.00938910      -0.00732536      -0.00000000 </v>
   <v>      -0.00071600       0.00985474      -0.00000000 </v>
   <v>       0.00177028       0.01184213       0.00197442 </v>
   <v>       0.00177028       0.01184213      -0.00197442 </v>
   <v>       0.02708893      -0.00601699      -0.00008758 </v>
   <v>      -0.00039839       0.00642048      -0.00155128 </v>
   <v>       0.00434751      -0.00732808       0.00140363 </v>
   <v>       0.00519805      -0.00087431      -0.00259195 </v>
   <v>       0.00400421      -0.01865071      -0.00000000 </v>
   <v>       0.00190840      -0.00938418       0.00056060 </v>
   <v>       0.00190840      -0.00938418      -0.00056060 </v>
   <v>      -0.00644857       0.00167589       0.01292057 </v>
   <v>      -0.01043458      -0.00504960      -0.00846534 </v>
   <v>      -0.01043458      -0.00504960       0.00846534 </v>
   <v>       0.00242906       0.00015294       0.01124798 </v>
   <v>       0.01111793      -0.00268161       0.00194542 </v>
   <v>       0.00045088      -0.00270367       0.00004770 </v>
   <v>      -0.00333008       0.00192250       0.01198780 </v>
   <v>      -0.00053383       0.00210778      -0.00441506 </v>
   <v>       0.00434751      -0.00732808      -0.00140363 </v>
   <v>       0.00024846       0.00662320      -0.00134300 </v>
   <v>      -0.00713132      -0.00732766      -0.00000000 </v>
   <v>       0.00045088      -0.00270367      -0.00004770 </v>
   <v>      -0.00053383       0.00210778       0.00441506 </v>
   <v>      -0.00333008       0.00192250      -0.01198780 </v>
   <v>      -0.00644857       0.00167589      -0.01292057 </v>
   <v>       0.01296653      -0.00893004      -0.00000000 </v>
   <v>      -0.00639676       0.00418515      -0.00149682 </v>
   <v>       0.00192953       0.00049537       0.00357407 </v>
   <v>      -0.00002919      -0.00444050      -0.02378589 </v>
   <v>      -0.00335590      -0.00092826      -0.00352326 </v>
   <v>      -0.00246450      -0.00218532       0.00595563 </v>
   <v>       0.00045507      -0.00049526       0.00910100 </v>
   <v>       0.01128898       0.00088603      -0.00000000 </v>
   <v>       0.00203728       0.00485678      -0.00229918 </v>
   <v>       0.01968726      -0.01350659      -0.00415123 </v>
   <v>       0.00192953       0.00049537      -0.00357407 </v>
   <v>      -0.00002919      -0.00444050       0.02378589 </v>
   <v>      -0.00335590      -0.00092826       0.00352326 </v>
   <v>      -0.00246450      -0.00218532      -0.00595563 </v>
   <v>       0.00045507      -0.00049526      -0.00910100 </v>
   <v>       0.01419901      -0.00567676       0.00057075 </v>
   <v>       0.00203728       0.00485678       0.00229918 </v>
  </varray>
  <varray name="stress" >
   <v>      -0.00746460      -0.04297923       0.00000000 </v>
   <v>      -0.04297913      -0.09171553       0.00000000 </v>
   <v>       0.00000000       0.00000000       0.26746996 </v>
  </varray>
  <energy>
   <i name="e_fr_energy">   -990.51778700 </i>
   <i name="e_wo_entrp">   -990.51778700 </i>
   <i name="e_0_energy">     -0.00000000 </i>
  </energy>
  <time name="totalsc">  528.34  530.55</time>
 </calculation>
 <calculation>
  <scstep>
   <time name="dav">  141.55  141.55</time>
   <time name="total">  143.89  143.91</time>
   <energy>
    <i name="alphaZ">   5638.68491304 </i>
    <i name="ewald"> -63118.37065189 </i>
    <i name="hartreedc"> -18626.79335962 </i>
    <i name="XCdc">   3407.88438578 </i>
    <i name="pawpsdc"> 116103.65692879 </i>
    <i name="pawaedc">-115610.45949673 </i>
    <i name="eentropy">     -0.00000000 </i>
    <i name="bandstr">  -7102.02432953 </i>
    <i name="atom">  78316.90445604 </i>
    <i name="e_fr_energy">   -990.51715412 </i>
    <i name="e_wo_entrp">   -990.51715412 </i>
    <i name="e_0_energy">   -990.51715412 </i>
   </energy>
  </scstep>
  <scstep>
   <time name="diag">   16.73   16.73</time>
   <time name="diis">   26.22   26.22</time>
   <time name="orth">    9.40    9.40</time>
   <time name="total">   54.90   54.93</time>
   <energy>
    <i name="e_fr_energy">   -990.51824855 </i>
    <i name="e_wo_entrp">   -990.51824855 </i>
    <i name="e_0_energy">   -990.51824855 </i>
   </energy>
  </scstep>
  <scstep>
   <time name="diag">   16.61   16.61</time>
   <time name="diis">   21.28   21.28</time>
   <time name="orth">    9.47    9.47</time>
   <time name="total">   49.74   49.82</time>
   <energy>
    <i name="e_fr_energy">   -990.51835225 </i>
    <i name="e_wo_entrp">   -990.51835225 </i>
    <i name="e_0_energy">   -990.51835225 </i>
   </energy>
  </scstep>
  <scstep>
   <time name="diag">   16.59   16.58</time>
   <time name="diis">   16.51   16.51</time>
   <time name="orth">    9.38    9.37</time>
   <time name="total">   44.85   44.90</time>
   <energy>
    <i name="e_fr_energy">   -990.51829376 </i>
    <i name="e_wo_entrp">   -990.51829376 </i>
    <i name="e_0_energy">   -990.51829376 </i>
   </energy>
  </scstep>
  <scstep>
   <time name="diag">   16.61   16.61</time>
   <time name="diis">   16.35   16.35</time>
   <time name="orth">    9.42    9.42</time>
   <time name="total">   44.75   44.82</time>
   <energy>
    <i name="e_fr_energy">   -990.51826115 </i>
    <i name="e_wo_entrp">   -990.51826115 </i>
    <i name="e_0_energy">   -990.51826115 </i>
   </energy>
  </scstep>
  <scstep>
   <time name="diag">   16.56   16.56</time>
   <time name="diis">   15.84   15.84</time>
   <time name="orth">    9.42    9.42</time>
   <time name="total">   44.17   44.21</time>
   <energy>
    <i name="e_fr_energy">   -990.51826176 </i>
    <i name="e_wo_entrp">   -990.51826176 </i>
    <i name="e_0_energy">   -990.51826176 </i>
   </energy>
  </scstep>
  <scstep>
   <time name="diag">   16.55   16.55</time>
   <time name="diis">   15.13   15.13</time>
   <time name="orth">    9.42    9.42</time>
   <time name="total">   43.45   43.55</time>
   <energy>
    <i name="e_fr_energy">   -990.51826196 </i>
    <i name="e_wo_entrp">   -990.51826196 </i>
    <i name="e_0_energy">   -990.51826196 </i>
   </energy>
  </scstep>
  <scstep>
   <time name="diag">   16.55   16.55</time>
   <time name="diis">   14.49   14.49</time>
   <time name="orth">    9.41    9.41</time>
   <time name="total">   41.03   41.04</time>
   <energy>
    <i name="alphaZ">   5638.68491304 </i>
    <i name="ewald"> -63118.37065189 </i>
    <i name="hartreedc"> -18627.69814393 </i>
    <i name="XCdc">   3407.95656534 </i>
    <i name="pawpsdc"> 116094.68002428 </i>
    <i name="pawaedc">-115601.47466249 </i>
    <i name="eentropy">     -0.00000000 </i>
    <i name="bandstr">  -7101.20076206 </i>
    <i name="atom">  78316.90445604 </i>
    <i name="e_fr_energy">   -990.51826167 </i>
    <i name="e_wo_entrp">   -990.51826167 </i>
    <i name="e_0_energy">   -990.51826167 </i>
   </energy>
  </scstep>
  <structure>
   <crystal>
    <varray name="basis" >
     <v>      11.41555540      -0.01574925       0.00000000 </v>
     <v>      -0.01657317      11.32981944       0.00000000 </v>
     <v>       0.00000000       0.00000000      15.40882470 </v>
    </varray>
    <i name="volume">   1992.91452664 </i>
    <varray name="rec_basis" >
     <v>       0.08759994       0.00012814       0.00000000 </v>
     <v>       0.00012177       0.08826284       0.00000000 </v>
     <v>       0.00000000       0.00000000       0.06489788 </v>
    </varray>
   </crystal>
   <varray name="positions" >
    <v>       0.00171529       0.24376074       0.12669293 </v>
    <v>       0.00301978       0.23773197       0.62714760 </v>
    <v>       0.98360861       0.75356981       0.12397889 </v>
    <v>       0.98124221       0.75592662       0.62543086 </v>
    <v>       0.49997307       0.23709159       0.12859800 </v>
    <v>       0.49603982       0.23621174       0.62740639 </v>
    <v>       0.50161824       0.77316513       0.12703481 </v>
    <v>       0.50122523       0.77252636       0.62625167 </v>
    <v>       0.00171529       0.24376074       0.37330707 </v>
    <v>       0.00301978       0.23773197       0.87285240 </v>
    <v>       0.98360861       0.75356981       0.37602111 </v>
    <v>       0.98124221       0.75592662       0.87456914 </v>
    <v>       0.49997307       0.23709159       0.37140200 </v>
    <v>       0.49603982       0.23621174       0.87259361 </v>
    <v>       0.50161824       0.77316513       0.37296519 </v>
    <v>       0.50122523       0.77252636       0.87374833 </v>
    <v>       0.25104158       0.01342659       0.12735945 </v>
    <v>       0.24614254       0.01198546       0.62870949 </v>
    <v>       0.24853264       0.47785371       0.12560703 </v>
    <v>       0.24730414       0.47705118       0.62627461 </v>
    <v>       0.74921969       0.00606861       0.12738766 </v>
    <v>       0.75249582       0.00163779       0.62619972 </v>
    <v>       0.76788101       0.49704830       0.12628318 </v>
    <v>       0.76514696       0.49896194       0.62470008 </v>
    <v>       0.25104158       0.01342659       0.37264055 </v>
    <v>       0.24614254       0.01198546       0.87129051 </v>
    <v>       0.24853264       0.47785371       0.37439297 </v>
    <v>       0.24730414       0.47705118       0.87372539 </v>
    <v>       0.74921969       0.00606861       0.37261234 </v>
    <v>       0.75249582       0.00163779       0.87380028 </v>
    <v>       0.76788101       0.49704830       0.37371682 </v>
    <v>       0.76514696       0.49896194       0.87529992 </v>
    <v>       0.75595818       0.24980769       0.49837338 </v>
    <v>       0.50242851       0.00270945       0.50001035 </v>
    <v>       0.75259151       0.24877091       0.75000000 </v>
    <v>       0.50242851       0.00270945       0.99998965 </v>
    <v>       0.24642932       0.24620189       0.50000599 </v>
    <v>       0.99712583       0.00102468       0.25000000 </v>
    <v>       0.24642932       0.24620189       0.99999401 </v>
    <v>       0.75595818       0.24980769       0.00162662 </v>
    <v>       0.24782212       0.76120691       0.75000000 </v>
    <v>       0.99604145       0.49604458       0.99915530 </v>
    <v>       0.99604145       0.49604458       0.50084470 </v>
    <v>       0.24667874       0.76434692       0.50022445 </v>
    <v>       0.75150656       0.75462962       0.75000000 </v>
    <v>       0.50369308       0.48521138       0.49975726 </v>
    <v>       0.75232798       0.75448072       0.49902745 </v>
    <v>       0.99648049       0.49424287       0.75000000 </v>
    <v>       0.24667874       0.76434692       0.99977555 </v>
    <v>       0.99676478       0.99802932       0.75000000 </v>
    <v>       0.24936175       0.24733623       0.25000000 </v>
    <v>       0.50584429       0.48679236       0.75000000 </v>
    <v>       0.24677767       0.76339344       0.25000000 </v>
    <v>       0.50293680       0.00534123       0.25000000 </v>
    <v>       0.24708916       0.24548607       0.75000000 </v>
    <v>       0.99638497       0.99751689       0.50057489 </v>
    <v>       0.50091899       0.00353805       0.75000000 </v>
    <v>       0.75232798       0.75448072       0.00097255 </v>
    <v>       0.75293348       0.25105071       0.25000000 </v>
    <v>       0.99841811       0.49447372       0.25000000 </v>
    <v>       0.50369308       0.48521138       0.00024274 </v>
    <v>       0.99638497       0.99751689       0.99942511 </v>
    <v>       0.50499119       0.48819591       0.25000000 </v>
    <v>       0.75333433       0.75481436       0.25000000 </v>
    <v>       0.03009252       0.53373263       0.62433096 </v>
    <v>       0.63654543       0.39413690       0.49880643 </v>
    <v>       0.12409531       0.12110184       0.25000000 </v>
    <v>       0.62295927       0.13286813       0.25000000 </v>
    <v>       0.62257210       0.13416427       0.75000000 </v>
    <v>       0.50062393       0.54542113       0.62437247 </v>
    <v>       0.37397054       0.12379623       0.75000000 </v>
    <v>       0.38151345       0.38394284       0.25000000 </v>
    <v>       0.38009706       0.38567896       0.75000000 </v>
    <v>       0.37299528       0.86403336       0.25000000 </v>
    <v>       0.37172257       0.86500835       0.75000000 </v>
    <v>       0.88790532       0.37069453       0.25000000 </v>
    <v>       0.88429110       0.37022945       0.75000000 </v>
    <v>       0.86838881       0.87611459       0.25000000 </v>
    <v>       0.86448794       0.87581272       0.75000000 </v>
    <v>       0.71983529       0.71998627       0.62371937 </v>
    <v>       0.87336056       0.62483459       0.00021147 </v>
    <v>       0.61203313       0.86551525       0.49933184 </v>
    <v>       0.87542075       0.12156495       0.25000000 </v>
    <v>       0.86943228       0.12565100       0.75000000 </v>
    <v>       0.87676413       0.62476115       0.25000000 </v>
    <v>       0.87112052       0.62154093       0.75000000 </v>
    <v>       0.13101065       0.11986556       0.50013362 </v>
    <v>       0.13101065       0.11986556       0.99986638 </v>
    <v>       0.11353819       0.85420637       0.25000000 </v>
    <v>       0.11249091       0.84680799       0.75000000 </v>
    <v>       0.64143663       0.40448049       0.25000000 </v>
    <v>       0.62581718       0.12658212       0.49961723 </v>
    <v>       0.61955894       0.86721692       0.25000000 </v>
    <v>       0.10864079       0.84511574       0.99905676 </v>
    <v>       0.37552034       0.38499150       0.99942899 </v>
    <v>       0.37552034       0.38499150       0.50057101 </v>
    <v>       0.36872022       0.87305931       0.00051299 </v>
    <v>       0.36872022       0.87305931       0.49948701 </v>
    <v>       0.88181670       0.37413223       0.99912521 </v>
    <v>       0.88181670       0.37413223       0.50087479 </v>
    <v>       0.86060745       0.87978631       0.49800997 </v>
    <v>       0.03009252       0.53373263       0.87566904 </v>
    <v>       0.49499402       0.54677044       0.12347872 </v>
    <v>       0.74594776       0.25547698       0.87551961 </v>
    <v>       0.62581718       0.12658212       0.00038277 </v>
    <v>       0.37288723       0.12371651       0.25000000 </v>
    <v>       0.13580287       0.38775761       0.25000000 </v>
    <v>       0.13136701       0.37970595       0.99938507 </v>
    <v>       0.13136701       0.37970595       0.50061493 </v>
    <v>       0.10864079       0.84511574       0.50094324 </v>
    <v>       0.71983529       0.71998627       0.87628063 </v>
    <v>       0.49875710       0.00230488       0.87562099 </v>
    <v>       0.61203313       0.86551525       0.00066816 </v>
    <v>       0.64057720       0.39849656       0.75000000 </v>
    <v>       0.37871817       0.12871818       0.00021728 </v>
    <v>       0.37871817       0.12871818       0.49978272 </v>
    <v>       0.49756538       0.00226980       0.37561020 </v>
    <v>       0.87559126       0.12950970       0.00047445 </v>
    <v>       0.87559126       0.12950970       0.49952555 </v>
    <v>       0.74594776       0.25547698       0.62448039 </v>
    <v>       0.87336056       0.62483459       0.49978853 </v>
    <v>       0.00389266       0.99637632       0.12477121 </v>
    <v>       0.00004918       0.99739369       0.62465980 </v>
    <v>       0.03015455       0.53140120       0.12295379 </v>
    <v>       0.49875710       0.00230488       0.62437901 </v>
    <v>       0.49499402       0.54677044       0.37652128 </v>
    <v>       0.13287402       0.38630531       0.75000000 </v>
    <v>       0.00389266       0.99637632       0.37522879 </v>
    <v>       0.03015455       0.53140120       0.37704621 </v>
    <v>       0.00004918       0.99739369       0.87534020 </v>
    <v>       0.49756538       0.00226980       0.12438980 </v>
    <v>       0.61638452       0.86537394       0.75000000 </v>
    <v>       0.50062393       0.54542113       0.87562753 </v>
    <v>       0.25263147       0.24921749       0.37537337 </v>
    <v>       0.25397664       0.24874042       0.87537100 </v>
    <v>       0.25559220       0.70431666       0.37502793 </v>
    <v>       0.26094050       0.70257791       0.87631500 </v>
    <v>       0.74868054       0.25475744       0.37523733 </v>
    <v>       0.12424248       0.12150867       0.75000000 </v>
    <v>       0.71915527       0.71738631       0.37453031 </v>
    <v>       0.63654543       0.39413690       0.00119357 </v>
    <v>       0.25263147       0.24921749       0.12462663 </v>
    <v>       0.25397664       0.24874042       0.62462900 </v>
    <v>       0.25559220       0.70431666       0.12497207 </v>
    <v>       0.26094050       0.70257791       0.62368500 </v>
    <v>       0.74868054       0.25475744       0.12476267 </v>
    <v>       0.86060745       0.87978631       0.00199003 </v>
    <v>       0.71915527       0.71738631       0.12546969 </v>
   </varray>
  </structure>
  <varray name="forces" >
   <v>       0.00207551       0.00252168      -0.00542890 </v>
   <v>      -0.00618134       0.00157163       0.00419414 </v>
   <v>      -0.00157792      -0.00197966      -0.00480271 </v>
   <v>      -0.00361038      -0.00183968      -0.00052790 </v>
   <v>      -0.00774868       0.00388167      -0.00633400 </v>
   <v>      -0.00031262       0.00388336      -0.00127278 </v>
   <v>       0.00409857       0.00030112      -0.00856554 </v>
   <v>      -0.00641932       0.00753330      -0.00687189 </v>
   <v>       0.00207551       0.00252168       0.00542890 </v>
   <v>      -0.00618134       0.00157163      -0.00419414 </v>
   <v>      -0.00157792      -0.00197966       0.00480271 </v>
   <v>      -0.00361038      -0.00183968       0.00052790 </v>
   <v>      -0.00774868       0.00388167       0.00633400 </v>
   <v>      -0.00031262       0.00388336       0.00127278 </v>
   <v>       0.00409857       0.00030112       0.00856554 </v>
   <v>      -0.00641932       0.00753330       0.00687189 </v>
   <v>       0.00283718      -0.00137398      -0.00336014 </v>
   <v>       0.00816295       0.00070120       0.00296385 </v>
   <v>      -0.00320879      -0.00260556       0.00277712 </v>
   <v>      -0.00790991      -0.00667654       0.00901162 </v>
   <v>       0.00228076      -0.00781018      -0.00371840 </v>
   <v>       0.00198250       0.00350278       0.00229884 </v>
   <v>      -0.00319143       0.00998802      -0.00290218 </v>
   <v>       0.00104819      -0.00717214       0.00601672 </v>
   <v>       0.00283718      -0.00137398       0.00336014 </v>
   <v>       0.00816295       0.00070120      -0.00296385 </v>
   <v>      -0.00320879      -0.00260556      -0.00277712 </v>
   <v>      -0.00790991      -0.00667654      -0.00901162 </v>
   <v>       0.00228076      -0.00781018       0.00371840 </v>
   <v>       0.00198250       0.00350278      -0.00229884 </v>
   <v>      -0.00319143       0.00998802       0.00290218 </v>
   <v>       0.00104819      -0.00717214      -0.00601672 </v>
   <v>      -0.00421365       0.00136359       0.08210203 </v>
   <v>      -0.00325291      -0.00226356       0.02666671 </v>
   <v>      -0.00091799      -0.00137475      -0.00000000 </v>
   <v>      -0.00325291      -0.00226356      -0.02666671 </v>
   <v>       0.01387989      -0.01237459       0.03139297 </v>
   <v>      -0.00560165      -0.02126943      -0.00000000 </v>
   <v>       0.01387989      -0.01237459      -0.03139297 </v>
   <v>      -0.00421365       0.00136359      -0.08210203 </v>
   <v>       0.00645120      -0.00606699      -0.00000000 </v>
   <v>      -0.00160270       0.00217595      -0.00395580 </v>
   <v>      -0.00160270       0.00217595       0.00395580 </v>
   <v>       0.01513152      -0.01458445       0.00261271 </v>
   <v>      -0.00018966       0.00212811      -0.00000000 </v>
   <v>       0.00915039      -0.00510155       0.00695754 </v>
   <v>       0.00785170      -0.00443203       0.00396100 </v>
   <v>      -0.00450617      -0.00831465      -0.00000000 </v>
   <v>       0.01513152      -0.01458445      -0.00261271 </v>
   <v>       0.00181147       0.01187303      -0.00000000 </v>
   <v>       0.00282428       0.00125331      -0.00000000 </v>
   <v>       0.00922785      -0.00648802      -0.00000000 </v>
   <v>      -0.00414321      -0.00824174      -0.00000000 </v>
   <v>      -0.00455349      -0.01139222      -0.00000000 </v>
   <v>       0.00345576      -0.01072879      -0.00000000 </v>
   <v>      -0.00150658       0.00364335       0.01095179 </v>
   <v>       0.00233887       0.00484700      -0.00000000 </v>
   <v>       0.00785170      -0.00443203      -0.00396100 </v>
   <v>       0.00502539      -0.00187085      -0.00000000 </v>
   <v>       0.00465467       0.01084463      -0.00000000 </v>
   <v>       0.00915039      -0.00510155      -0.00695754 </v>
   <v>      -0.00150658       0.00364335      -0.01095179 </v>
   <v>      -0.00504045       0.00404242      -0.00000000 </v>
   <v>       0.00461871      -0.00126167      -0.00000000 </v>
   <v>      -0.00571584      -0.00240918      -0.00378766 </v>
   <v>      -0.00473552       0.00378242      -0.00284115 </v>
   <v>       0.00576502       0.01039060      -0.00000000 </v>
   <v>       0.00906512       0.00550221      -0.00000000 </v>
   <v>      -0.01167356      -0.01239418      -0.00000000 </v>
   <v>      -0.00277688      -0.00066633      -0.00906988 </v>
   <v>       0.01012955       0.00495955      -0.00000000 </v>
   <v>      -0.00609994       0.00016638      -0.00000000 </v>
   <v>       0.00025213       0.01640255      -0.00000000 </v>
   <v>       0.01077147       0.00491110      -0.00000000 </v>
   <v>      -0.00789344       0.00233672      -0.00000000 </v>
   <v>      -0.01845207      -0.01330023      -0.00000000 </v>
   <v>       0.00235623       0.01347789      -0.00000000 </v>
   <v>       0.00312445       0.01197605      -0.00000000 </v>
   <v>      -0.00062978      -0.00288251      -0.00000000 </v>
   <v>       0.00195837       0.00435141      -0.00425742 </v>
   <v>       0.00086545      -0.00065431      -0.00001196 </v>
   <v>       0.00862238      -0.00153960      -0.00223377 </v>
   <v>      -0.00653156       0.01715819      -0.00000000 </v>
   <v>       0.01870328      -0.00082674      -0.00000000 </v>
   <v>       0.00073445       0.00445462      -0.00000000 </v>
   <v>       0.00081459       0.00760705      -0.00000000 </v>
   <v>      -0.01313333       0.01897503      -0.00561298 </v>
   <v>      -0.01313333       0.01897503       0.00561298 </v>
   <v>      -0.01022324       0.00782517      -0.00000000 </v>
   <v>      -0.01059843       0.00733626      -0.00000000 </v>
   <v>       0.01047782      -0.01471197      -0.00000000 </v>
   <v>       0.00229218       0.00409530      -0.00450089 </v>
   <v>       0.00069449       0.00653795      -0.00000000 </v>
   <v>      -0.01165560       0.02006103       0.00030193 </v>
   <v>       0.00123115       0.00045023       0.00248843 </v>
   <v>       0.00123115       0.00045023      -0.00248843 </v>
   <v>       0.00710553      -0.00467691      -0.00189621 </v>
   <v>       0.00710553      -0.00467691       0.00189621 </v>
   <v>      -0.00270189      -0.00552509       0.00875873 </v>
   <v>      -0.00270189      -0.00552509      -0.00875873 </v>
   <v>       0.01152762      -0.00450374      -0.00361150 </v>
   <v>      -0.00571584      -0.00240918       0.00378766 </v>
   <v>       0.00346638      -0.00064530       0.00034511 </v>
   <v>       0.00393250      -0.00112839       0.03455621 </v>
   <v>       0.00229218       0.00409530       0.00450089 </v>
   <v>       0.00512585       0.00034671      -0.00000000 </v>
   <v>       0.00259877      -0.00202568      -0.00000000 </v>
   <v>       0.00637821       0.00359213       0.00444019 </v>
   <v>       0.00637821       0.00359213      -0.00444019 </v>
   <v>      -0.01165560       0.02006103      -0.00030193 </v>
   <v>       0.00195837       0.00435141       0.00425742 </v>
   <v>       0.00190337      -0.00481375       0.01017980 </v>
[...]
       <r>   -17.7090     0.0000    32.0000 </r>
       <r>   -17.5548     0.0000    32.0000 </r>
       <r>   -17.4006     0.0000    32.0000 </r>
       <r>   -17.2464     0.0000    32.0000 </r>
       <r>   -17.0923     0.0000    32.0000 </r>
       <r>   -16.9381     0.0000    32.0000 </r>
       <r>   -16.7839     0.0000    32.0000 </r>
       <r>   -16.6297     0.0000    32.0000 </r>
       <r>   -16.4755     0.0000    32.0000 </r>
       <r>   -16.3213     0.0000    32.0000 </r>
       <r>   -16.1671     0.0000    32.0000 </r>
       <r>   -16.0129     0.0000    32.0000 </r>
       <r>   -15.8587     0.0000    32.0000 </r>
       <r>   -15.7046     0.0000    32.0000 </r>
       <r>   -15.5504     0.0000    32.0000 </r>
       <r>   -15.3962     0.0000    32.0000 </r>
       <r>   -15.2420     0.0000    32.0000 </r>
       <r>   -15.0878     2.6227    32.4044 </r>
       <r>   -14.9336    25.3857    36.3186 </r>
       <r>   -14.7794    30.1919    40.9739 </r>
       <r>   -14.6252    34.2220    46.2505 </r>
       <r>   -14.4710    37.2278    51.9906 </r>
       <r>   -14.3169    46.2577    59.1231 </r>
       <r>   -14.1627    55.4401    67.6713 </r>
       <r>   -14.0085    74.6863    79.1871 </r>
       <r>   -13.8543    76.4260    90.9712 </r>
       <r>   -13.7001    73.2980   102.2729 </r>
       <r>   -13.5459    45.1982   109.2420 </r>
       <r>   -13.3917    27.9721   113.5550 </r>
       <r>   -13.2375    12.0124   115.4071 </r>
       <r>   -13.0833     3.8449   116.0000 </r>
       <r>   -12.9292     0.0005   116.0001 </r>
       <r>   -12.7750    11.8600   117.8287 </r>
       <r>   -12.6208    87.1235   131.2622 </r>
       <r>   -12.4666   112.2498   148.5699 </r>
       <r>   -12.3124    77.9245   160.5850 </r>
       <r>   -12.1582   110.8146   177.6714 </r>
       <r>   -12.0040    76.1960   189.4200 </r>
       <r>   -11.8498    55.6205   197.9960 </r>
       <r>   -11.6956    75.5017   209.6376 </r>
       <r>   -11.5414    15.3049   211.9974 </r>
       <r>   -11.3873     0.0168   212.0000 </r>
       <r>   -11.2331     0.0000   212.0000 </r>
       <r>   -11.0789     0.0000   212.0000 </r>
       <r>   -10.9247     0.0000   212.0000 </r>
       <r>   -10.7705     0.0000   212.0000 </r>
       <r>   -10.6163     0.0000   212.0000 </r>
       <r>   -10.4621     0.0000   212.0000 </r>
       <r>   -10.3079     0.0000   212.0000 </r>
       <r>   -10.1537     0.0000   212.0000 </r>
       <r>    -9.9996     0.0000   212.0000 </r>
       <r>    -9.8454     0.0000   212.0000 </r>
       <r>    -9.6912     0.0000   212.0000 </r>
       <r>    -9.5370     0.0000   212.0000 </r>
       <r>    -9.3828     0.0000   212.0000 </r>
       <r>    -9.2286     0.0000   212.0000 </r>
       <r>    -9.0744     0.0000   212.0000 </r>
       <r>    -8.9202     0.0000   212.0000 </r>
       <r>    -8.7660     0.0000   212.0000 </r>
       <r>    -8.6119     0.0000   212.0000 </r>
       <r>    -8.4577     0.0000   212.0000 </r>
       <r>    -8.3035     0.0000   212.0000 </r>
       <r>    -8.1493     0.0000   212.0000 </r>
       <r>    -7.9951     0.0000   212.0000 </r>
       <r>    -7.8409     0.0000   212.0000 </r>
       <r>    -7.6867     0.0000   212.0000 </r>
       <r>    -7.5325     0.0000   212.0000 </r>
       <r>    -7.3783     0.0000   212.0000 </r>
       <r>    -7.2242     0.0000   212.0000 </r>
       <r>    -7.0700     0.0000   212.0000 </r>
       <r>    -6.9158     0.0000   212.0000 </r>
       <r>    -6.7616     0.0000   212.0000 </r>
       <r>    -6.6074     0.0000   212.0000 </r>
       <r>    -6.4532     0.0000   212.0000 </r>
       <r>    -6.2990     0.0000   212.0000 </r>
       <r>    -6.1448     0.0000   212.0000 </r>
       <r>    -5.9906     0.0000   212.0000 </r>
       <r>    -5.8365     0.0000   212.0000 </r>
       <r>    -5.6823     0.0000   212.0000 </r>
       <r>    -5.5281     0.0000   212.0000 </r>
       <r>    -5.3739     0.0000   212.0000 </r>
       <r>    -5.2197     0.0000   212.0000 </r>
       <r>    -5.0655     0.0000   212.0000 </r>
       <r>    -4.9113     0.0000   212.0000 </r>
       <r>    -4.7571     0.0000   212.0000 </r>
       <r>    -4.6029     0.0000   212.0000 </r>
       <r>    -4.4488     0.0000   212.0000 </r>
       <r>    -4.2946     0.0000   212.0000 </r>
       <r>    -4.1404     0.0000   212.0000 </r>
       <r>    -3.9862     0.0000   212.0000 </r>
       <r>    -3.8320     0.0000   212.0000 </r>
       <r>    -3.6778     0.0000   212.0000 </r>
       <r>    -3.5236     0.0000   212.0000 </r>
       <r>    -3.3694     0.0000   212.0000 </r>
       <r>    -3.2152     0.0000   212.0000 </r>
       <r>    -3.0611     0.0000   212.0000 </r>
       <r>    -2.9069     0.0000   212.0000 </r>
       <r>    -2.7527     0.0000   212.0000 </r>
       <r>    -2.5985     1.6639   212.2566 </r>
       <r>    -2.4443     5.0951   213.0422 </r>
       <r>    -2.2901    14.3934   215.2615 </r>
       <r>    -2.1359    12.9236   217.2541 </r>
       <r>    -1.9817    18.3116   220.0776 </r>
       <r>    -1.8275    22.2588   223.5096 </r>
       <r>    -1.6734    33.6576   228.6993 </r>
       <r>    -1.5192    27.3994   232.9240 </r>
       <r>    -1.3650    45.2179   239.8961 </r>
       <r>    -1.2108    43.8638   246.6594 </r>
       <r>    -1.0566    58.7332   255.7154 </r>
       <r>    -0.9024    57.9022   264.6433 </r>
       <r>    -0.7482    72.9762   275.8954 </r>
       <r>    -0.5940    94.5770   290.4781 </r>
       <r>    -0.4398    95.2098   305.1584 </r>
       <r>    -0.2857    82.0362   317.8075 </r>
       <r>    -0.1315    67.2865   328.1823 </r>
       <r>     0.0227    54.8567   336.6406 </r>
       <r>     0.1769    61.4073   346.1090 </r>
       <r>     0.3311    61.6703   355.6179 </r>
       <r>     0.4853    63.9313   365.4754 </r>
       <r>     0.6395    54.3629   373.8575 </r>
       <r>     0.7937    49.7018   381.5210 </r>
       <r>     0.9479    51.6452   389.4841 </r>
       <r>     1.1020    60.0614   398.7449 </r>
       <r>     1.2562    56.5307   407.4613 </r>
       <r>     1.4104    59.9228   416.7008 </r>
       <r>     1.5646    74.4609   428.1818 </r>
       <r>     1.7188    60.8759   437.5682 </r>
       <r>     1.8730    49.2360   445.1599 </r>
       <r>     2.0272    46.8561   452.3846 </r>
       <r>     2.1814    45.7404   459.4372 </r>
       <r>     2.3356    14.2569   461.6355 </r>
       <r>     2.4897     8.9882   463.0214 </r>
       <r>     2.6439     5.7037   463.9008 </r>
       <r>     2.7981     0.6433   464.0000 </r>
       <r>     2.9523     0.0000   464.0000 </r>
       <r>     3.1065     0.0000   464.0000 </r>
       <r>     3.2607     0.0000   464.0000 </r>
       <r>     3.4149     0.0000   464.0000 </r>
       <r>     3.5691     0.0000   464.0000 </r>
       <r>     3.7233     0.0004   464.0001 </r>
       <r>     3.8774     4.9346   464.7609 </r>
       <r>     4.0316     8.0194   465.9974 </r>
       <r>     4.1858    10.5136   467.6185 </r>
       <r>     4.3400    15.7733   470.0506 </r>
       <r>     4.4942    34.0811   475.3055 </r>
       <r>     4.6484    69.3529   485.9990 </r>
       <r>     4.8026    70.2103   496.8246 </r>
       <r>     4.9568    51.0470   504.6955 </r>
       <r>     5.1110    69.6757   515.4387 </r>
       <r>     5.2652    87.3893   528.9132 </r>
       <r>     5.4193    83.7512   541.8267 </r>
       <r>     5.5735    74.3427   553.2895 </r>
       <r>     5.7277    76.0326   565.0129 </r>
       <r>     5.8819    48.5923   572.5053 </r>
       <r>     6.0361    60.9935   581.9098 </r>
       <r>     6.1903    53.0452   590.0888 </r>
       <r>     6.3445    54.2280   598.4502 </r>
       <r>     6.4987    35.4710   603.9194 </r>
       <r>     6.6529    16.6698   606.4897 </r>
       <r>     6.8070    10.8256   608.1589 </r>
       <r>     6.9612    10.8499   609.8318 </r>
       <r>     7.1154    13.2503   611.8749 </r>
       <r>     7.2696    18.3304   614.7012 </r>
       <r>     7.4238     3.6957   615.2711 </r>
       <r>     7.5780    13.0984   617.2907 </r>
       <r>     7.7322    17.2229   619.9463 </r>
       <r>     7.8864    16.1401   622.4349 </r>
       <r>     8.0406    17.4063   625.1188 </r>
       <r>     8.1947    22.9653   628.6598 </r>
       <r>     8.3489    22.2562   632.0914 </r>
       <r>     8.5031    20.8805   635.3110 </r>
       <r>     8.6573    27.2421   639.5114 </r>
       <r>     8.8115    29.6706   644.0863 </r>
       <r>     8.9657    42.2766   650.6049 </r>
       <r>     9.1199    39.1107   656.6353 </r>
       <r>     9.2741    40.2474   662.8410 </r>
       <r>     9.4283    38.9219   668.8423 </r>
       <r>     9.5824    38.5705   674.7895 </r>
       <r>     9.7366    47.8950   682.1744 </r>
       <r>     9.8908    50.9519   690.0306 </r>
       <r>    10.0450    55.7020   698.6192 </r>
       <r>    10.1992    50.4354   706.3958 </r>
       <r>    10.3534    47.0893   713.6564 </r>
       <r>    10.5076    58.7677   722.7178 </r>
       <r>    10.6618    59.2009   731.8459 </r>
       <r>    10.8160    61.6493   741.3515 </r>
       <r>    10.9701    55.6201   749.9276 </r>
       <r>    11.1243    55.1624   758.4330 </r>
       <r>    11.2785    46.2764   765.5683 </r>
       <r>    11.4327    15.7607   767.9984 </r>
       <r>    11.5869     0.0102   768.0000 </r>
       <r>    11.7411     0.0000   768.0000 </r>
       <r>    11.8953     0.0000   768.0000 </r>
       <r>    12.0495     0.0000   768.0000 </r>
       <r>    12.2037     0.0000   768.0000 </r>
       <r>    12.3578     0.0000   768.0000 </r>
       <r>    12.5120     0.0000   768.0000 </r>
       <r>    12.6662     0.0000   768.0000 </r>
       <r>    12.8204     0.0000   768.0000 </r>
       <r>    12.9746     0.0000   768.0000 </r>
       <r>    13.1288     0.0000   768.0000 </r>
       <r>    13.2830     0.0000   768.0000 </r>
       <r>    13.4372     0.0000   768.0000 </r>
      </set>
     </set>
    </array>
   </total>
  </dos>
 </calculation>
 <structure name="finalpos" >
  <crystal>
   <varray name="basis" >
    <v>      11.41543359      -0.01601325       0.00000000 </v>
    <v>      -0.01683575      11.32929039       0.00000000 </v>
    <v>       0.00000000       0.00000000      15.40987989 </v>
   </varray>
   <i name="volume">   1992.93653494 </i>
   <varray name="rec_basis" >
    <v>       0.08760088       0.00013018       0.00000000 </v>
    <v>       0.00012382       0.08826697       0.00000000 </v>
    <v>       0.00000000       0.00000000       0.06489343 </v>
   </varray>
  </crystal>
  <varray name="positions" >
   <v>       0.00171478       0.24377491       0.12668482 </v>
   <v>       0.00300535       0.23773809       0.62714487 </v>
   <v>       0.98359295       0.75355557       0.12395163 </v>
   <v>       0.98122131       0.75591864       0.62542242 </v>
   <v>       0.49994483       0.23711179       0.12858481 </v>
   <v>       0.49601917       0.23624444       0.62739549 </v>
   <v>       0.50164015       0.77317193       0.12699734 </v>
   <v>       0.50120117       0.77255211       0.62622250 </v>
   <v>       0.00171478       0.24377491       0.37331518 </v>
   <v>       0.00300535       0.23773809       0.87285513 </v>
   <v>       0.98359295       0.75355557       0.37604837 </v>
   <v>       0.98122131       0.75591864       0.87457758 </v>
   <v>       0.49994483       0.23711179       0.37141519 </v>
   <v>       0.49601917       0.23624444       0.87260451 </v>
   <v>       0.50164015       0.77317193       0.37300266 </v>
   <v>       0.50120117       0.77255211       0.87377750 </v>
   <v>       0.25105610       0.01343039       0.12735887 </v>
   <v>       0.24617761       0.01198300       0.62871538 </v>
   <v>       0.24851840       0.47780277       0.12561815 </v>
   <v>       0.24727602       0.47699462       0.62629390 </v>
   <v>       0.74922969       0.00605753       0.12737949 </v>
   <v>       0.75251591       0.00163716       0.62620820 </v>
   <v>       0.76786170       0.49707315       0.12627949 </v>
   <v>       0.76515040       0.49895850       0.62471749 </v>
   <v>       0.25105610       0.01343039       0.37264113 </v>
   <v>       0.24617761       0.01198300       0.87128462 </v>
   <v>       0.24851840       0.47780277       0.37438185 </v>
   <v>       0.24727602       0.47699462       0.87370610 </v>
   <v>       0.74922969       0.00605753       0.37262051 </v>
   <v>       0.75251591       0.00163716       0.87379180 </v>
   <v>       0.76786170       0.49707315       0.37372051 </v>
   <v>       0.76515040       0.49895850       0.87528251 </v>
   <v>       0.75592456       0.24981222       0.49847178 </v>
   <v>       0.50243772       0.00270195       0.50003508 </v>
   <v>       0.75259243       0.24874810       0.75000000 </v>
   <v>       0.50243772       0.00270195       0.99996492 </v>
   <v>       0.24644488       0.24622438       0.50005988 </v>
   <v>       0.99708984       0.00099637       0.25000000 </v>
   <v>       0.24644488       0.24622438       0.99994012 </v>
   <v>       0.75592456       0.24981222       0.00152822 </v>
   <v>       0.24779693       0.76120086       0.75000000 </v>
   <v>       0.99602303       0.49602918       0.99915626 </v>
   <v>       0.99602303       0.49602918       0.50084374 </v>
   <v>       0.24667681       0.76433372       0.50024197 </v>
   <v>       0.75148772       0.75462468       0.75000000 </v>
   <v>       0.50371373       0.48521808       0.49978095 </v>
   <v>       0.75237870       0.75445118       0.49904212 </v>
   <v>       0.99646805       0.49423706       0.75000000 </v>
   <v>       0.24667681       0.76433372       0.99975803 </v>
   <v>       0.99676656       0.99805879       0.75000000 </v>
   <v>       0.24938309       0.24733890       0.25000000 </v>
   <v>       0.50586902       0.48680567       0.75000000 </v>
   <v>       0.24674746       0.76338433       0.25000000 </v>
   <v>       0.50288864       0.00531639       0.25000000 </v>
   <v>       0.24713696       0.24543098       0.75000000 </v>
   <v>       0.99638365       0.99753563       0.50058514 </v>
   <v>       0.50091832       0.00354564       0.75000000 </v>
   <v>       0.75237870       0.75445118       0.00095788 </v>
   <v>       0.75296816       0.25103269       0.25000000 </v>
   <v>       0.99840312       0.49443873       0.25000000 </v>
   <v>       0.50371373       0.48521808       0.00021905 </v>
   <v>       0.99638365       0.99753563       0.99941486 </v>
   <v>       0.50498556       0.48818604       0.25000000 </v>
   <v>       0.75334278       0.75480530       0.25000000 </v>
   <v>       0.03006417       0.53371971       0.62433297 </v>
   <v>       0.63657861       0.39411523       0.49880704 </v>
   <v>       0.12411528       0.12113743       0.25000000 </v>
   <v>       0.62300420       0.13289470       0.25000000 </v>
   <v>       0.62254459       0.13412891       0.75000000 </v>
   <v>       0.50059745       0.54542918       0.62435398 </v>
   <v>       0.37399852       0.12384215       0.75000000 </v>
   <v>       0.38148250       0.38395907       0.25000000 </v>
   <v>       0.38005731       0.38574826       0.75000000 </v>
   <v>       0.37303069       0.86402953       0.25000000 </v>
   <v>       0.37168611       0.86502521       0.75000000 </v>
   <v>       0.88786378       0.37069011       0.25000000 </v>
   <v>       0.88426809       0.37026290       0.75000000 </v>
   <v>       0.86839704       0.87615904       0.25000000 </v>
   <v>       0.86449383       0.87581494       0.75000000 </v>
   <v>       0.71983924       0.72001291       0.62371356 </v>
   <v>       0.87338872       0.62482651       0.00021013 </v>
   <v>       0.61206900       0.86550825       0.49933194 </v>
   <v>       0.87541480       0.12160841       0.25000000 </v>
   <v>       0.86950853       0.12570095       0.75000000 </v>
   <v>       0.87676678       0.62481107       0.25000000 </v>
   <v>       0.87113575       0.62156546       0.75000000 </v>
   <v>       0.13093134       0.11994944       0.50011971 </v>
   <v>       0.13093134       0.11994944       0.99988029 </v>
   <v>       0.11351001       0.85421541       0.25000000 </v>
   <v>       0.11248568       0.84682649       0.75000000 </v>
   <v>       0.64147958       0.40441949       0.25000000 </v>
   <v>       0.62581524       0.12658118       0.49962361 </v>
   <v>       0.61961445       0.86719922       0.25000000 </v>
   <v>       0.10866976       0.84515937       0.99905736 </v>
   <v>       0.37550804       0.38498163       0.99943449 </v>
   <v>       0.37550804       0.38498163       0.50056551 </v>
   <v>       0.36874330       0.87302132       0.00049786 </v>
   <v>       0.36874330       0.87302132       0.49950214 </v>
   <v>       0.88181436       0.37412692       0.99913917 </v>
   <v>       0.88181436       0.37412692       0.50086083 </v>
   <v>       0.86066772       0.87976341       0.49800076 </v>
   <v>       0.03006417       0.53371971       0.87566703 </v>
   <v>       0.49500435       0.54678279       0.12348162 </v>
   <v>       0.74596349       0.25547527       0.87557122 </v>
   <v>       0.62581524       0.12658118       0.00037639 </v>
   <v>       0.37292319       0.12370160       0.25000000 </v>
   <v>       0.13580881       0.38777463       0.25000000 </v>
   <v>       0.13138694       0.37974565       0.99939394 </v>
   <v>       0.13138694       0.37974565       0.50060606 </v>
   <v>       0.10866976       0.84515937       0.50094264 </v>
   <v>       0.71983924       0.72001291       0.87628644 </v>
   <v>       0.49877054       0.00227568       0.87564440 </v>
   <v>       0.61206900       0.86550825       0.00066806 </v>
   <v>       0.64052221       0.39847298       0.75000000 </v>
   <v>       0.37869665       0.12870480       0.00022730 </v>
   <v>       0.37869665       0.12870480       0.49977270 </v>
   <v>       0.49754043       0.00227929       0.37559073 </v>
   <v>       0.87554482       0.12948201       0.00046748 </v>
   <v>       0.87554482       0.12948201       0.49953252 </v>
   <v>       0.74596349       0.25547527       0.62442878 </v>
   <v>       0.87338872       0.62482651       0.49978987 </v>
   <v>       0.00389433       0.99637550       0.12478355 </v>
   <v>       0.00003711       0.99739623       0.62466139 </v>
   <v>       0.03014432       0.53139235       0.12294959 </v>
   <v>       0.49877054       0.00227568       0.62435560 </v>
   <v>       0.49500435       0.54678279       0.37651838 </v>
   <v>       0.13283767       0.38628263       0.75000000 </v>
   <v>       0.00389433       0.99637550       0.37521645 </v>
   <v>       0.03014432       0.53139235       0.37705041 </v>
   <v>       0.00003711       0.99739623       0.87533861 </v>
   <v>       0.49754043       0.00227929       0.12440927 </v>
   <v>       0.61643317       0.86532781       0.75000000 </v>
   <v>       0.50059745       0.54542918       0.87564602 </v>
   <v>       0.25264102       0.24921939       0.37536165 </v>
   <v>       0.25397678       0.24872292       0.87538076 </v>
   <v>       0.25557369       0.70430716       0.37501153 </v>
   <v>       0.26092389       0.70256473       0.87633204 </v>
   <v>       0.74867979       0.25475336       0.37516833 </v>
   <v>       0.12428726       0.12149462       0.75000000 </v>
   <v>       0.71916905       0.71739511       0.37453866 </v>
   <v>       0.63657861       0.39411523       0.00119296 </v>
   <v>       0.25264102       0.24921939       0.12463835 </v>
   <v>       0.25397678       0.24872292       0.62461924 </v>
   <v>       0.25557369       0.70430716       0.12498847 </v>
   <v>       0.26092389       0.70256473       0.62366796 </v>
   <v>       0.74867979       0.25475336       0.12483167 </v>
   <v>       0.86066772       0.87976341       0.00199924 </v>
   <v>       0.71916905       0.71739511       0.12546134 </v>
  </varray>
 </structure>
</modeling>
