<?xml version="1.0" encoding="ISO-8859-1"?>
<modeling>
 <generator>
  <i name="program" type="string">vasp </i>
  <i name="version" type="string">5.4.1  </i>
  <i name="subversion" type="string">05Feb16 (build Jan 25 2017 20:16:33) complex                          parallel </i>
  <i name="platform" type="string">BWXE6 </i>
  <i name="date" type="string">2019 06 24 </i>
  <i name="time" type="string">06:18:39 </i>
 </generator>
 <incar>
  <i type="string" name="SYSTEM"> STF</i>
  <i type="string" name="PREC">normal</i>
  <i type="string" name="ALGO"> Fast</i>
  <i type="int" name="ISPIN">     2</i>
  <i type="int" name="NELM">    40</i>
  <i type="int" name="NELMIN">     8</i>
  <i type="int" name="IBRION">     2</i>
  <i name="EDIFF">      0.00010000</i>
  <i name="EDIFFG">     -0.03000000</i>
  <i type="int" name="NSW">    30</i>
  <i type="int" name="ISIF">     3</i>
  <i name="ENCUT">    520.00000000</i>
  <i type="int" name="NBANDS">   768</i>
  <v name="MAGMOM">      0.60000000      0.60000000      0.60000000      0.60000000      0.60000000      0.60000000      0.60000000      0.60000000      0.60000000      0.60000000      0.60000000      0.60000000      0.60000000      0.60000000      0.60000000      0.60000000      0.60000000      0.60000000      0.60000000      0.60000000
      0.60000000      0.60000000      0.60000000      0.60000000      0.60000000      0.60000000      0.60000000      0.60000000      0.60000000      0.60000000      0.60000000      0.60000000      0.60000000      0.60000000      0.60000000      0.60000000      0.60000000      0.60000000      0.60000000      0.60000000
      0.60000000      0.60000000      0.60000000      0.60000000      0.60000000      0.60000000      0.60000000      0.60000000      0.60000000      0.60000000      0.60000000      0.60000000      5.00000000      5.00000000      5.00000000      5.00000000      5.00000000      5.00000000      5.00000000      5.00000000
      5.00000000      5.00000000      5.00000000      5.00000000      0.60000000      0.60000000      0.60000000      0.60000000      0.60000000      0.60000000      0.60000000      0.60000000      0.60000000      0.60000000      0.60000000      0.60000000      0.60000000      0.60000000      0.60000000      0.60000000
      0.60000000      0.60000000      0.60000000      0.60000000      0.60000000      0.60000000      0.60000000      0.60000000      0.60000000      0.60000000      0.60000000      0.60000000      0.60000000      0.60000000      0.60000000      0.60000000      0.60000000      0.60000000      0.60000000      0.60000000
      0.60000000      0.60000000      0.60000000      0.60000000      0.60000000      0.60000000      0.60000000      0.60000000      0.60000000      0.60000000      0.60000000      0.60000000      0.60000000      0.60000000      0.60000000      0.60000000      0.60000000      0.60000000      0.60000000      0.60000000
      0.60000000      0.60000000      0.60000000      0.60000000      0.60000000      0.60000000      0.60000000      0.60000000      0.60000000      0.60000000      0.60000000      0.60000000      0.60000000      0.60000000      0.60000000      0.60000000      0.60000000      0.60000000      0.60000000      0.60000000
      0.60000000      0.60000000      0.60000000      0.60000000      0.60000000      0.60000000      0.60000000      0.60000000      0.60000000      0.60000000      0.60000000      0.60000000      0.60000000      0.60000000</v>
  <i type="string" name="LREAL"> Auto</i>
  <i type="int" name="ISMEAR">     0</i>
  <i name="SIGMA">      0.05000000</i>
  <i type="int" name="LMAXMIX">     4</i>
  <v type="int" name="KPOINT_BSE">    -1     0     0     0</v>
  <i type="int" name="NELM">    40</i>
  <i type="logical" name="LDAU"> T  </i>
  <v type="int" name="LDAUTYPE">     2</v>
  <v type="int" name="LDAUL">     0     2     2     0</v>
  <v name="LDAUU">      0.00000000      3.00000000      5.00000000      0.00000000</v>
  <v name="LDAUJ">      0.00000000      0.00000000      0.00000000      0.00000000</v>
  <i type="int" name="LDAUPRINT">     1</i>
 </incar>
 <kpoints>
  <generation param="Monkhorst-Pack">
   <v type="int" name="divisions">       2        2        2 </v>
   <v name="usershift">      0.00000000       0.00000000       0.00000000 </v>
   <v name="genvec1">      0.50000000      -0.00000000      -0.00000000 </v>
   <v name="genvec2">     -0.00000000       0.50000000      -0.00000000 </v>
   <v name="genvec3">      0.00000000       0.00000000       0.50000000 </v>
   <v name="shift">      0.50000000       0.50000000       0.50000000 </v>
  </generation>
  <varray name="kpointlist" >
   <v>       0.25000000       0.25000000       0.25000000 </v>
   <v>      -0.25000000       0.25000000       0.25000000 </v>
   <v>       0.25000000      -0.25000000       0.25000000 </v>
   <v>      -0.25000000      -0.25000000       0.25000000 </v>
  </varray>
  <varray name="weights" >
   <v>       0.25000000 </v>
   <v>       0.25000000 </v>
   <v>       0.25000000 </v>
   <v>       0.25000000 </v>
  </varray>
 </kpoints>
 <parameters>
  <separator name="general" >
   <i type="string" name="SYSTEM">STF</i>
   <i type="logical" name="LCOMPAT"> F  </i>
  </separator>
  <separator name="electronic" >
   <i type="string" name="PREC">normal</i>
   <i name="ENMAX">    520.00000000</i>
   <i name="ENAUG">    605.39200000</i>
   <i name="EDIFF">      0.00010000</i>
   <i type="int" name="IALGO">    68</i>
   <i type="int" name="IWAVPR">    11</i>
   <i type="int" name="NBANDS">   768</i>
   <i name="NELECT">   1036.00000000</i>
   <i type="int" name="TURBO">     0</i>
   <i type="int" name="IRESTART">     0</i>
   <i type="int" name="NREBOOT">     0</i>
   <i type="int" name="NMIN">     0</i>
   <i name="EREF">      0.00000000</i>
   <separator name="electronic smearing" >
    <i type="int" name="ISMEAR">     0</i>
    <i name="SIGMA">      0.05000000</i>
    <i name="KSPACING">      0.50000000</i>
    <i type="logical" name="KGAMMA"> T  </i>
   </separator>
   <separator name="electronic projectors" >
    <i type="logical" name="LREAL"> T  </i>
    <v name="ROPT">     -0.00050000     -0.00050000     -0.00050000     -0.00050000</v>
    <i type="int" name="LMAXPAW">  -100</i>
    <i type="int" name="LMAXMIX">     4</i>
    <i type="logical" name="NLSPLINE"> F  </i>
   </separator>
   <separator name="electronic startup" >
    <i type="int" name="ISTART">     1</i>
    <i type="int" name="ICHARG">     0</i>
    <i type="int" name="INIWAV">     1</i>
   </separator>
   <separator name="electronic spin" >
    <i type="int" name="ISPIN">     2</i>
    <i type="logical" name="LNONCOLLINEAR"> F  </i>
    <v name="MAGMOM">      0.60000000      0.60000000      0.60000000      0.60000000      0.60000000      0.60000000      0.60000000      0.60000000      0.60000000      0.60000000      0.60000000      0.60000000      0.60000000      0.60000000      0.60000000      0.60000000      0.60000000      0.60000000      0.60000000      0.60000000
      0.60000000      0.60000000      0.60000000      0.60000000      0.60000000      0.60000000      0.60000000      0.60000000      0.60000000      0.60000000      0.60000000      0.60000000      0.60000000      0.60000000      0.60000000      0.60000000      0.60000000      0.60000000      0.60000000      0.60000000
      0.60000000      0.60000000      0.60000000      0.60000000      0.60000000      0.60000000      0.60000000      0.60000000      0.60000000      0.60000000      0.60000000      0.60000000      5.00000000      5.00000000      5.00000000      5.00000000      5.00000000      5.00000000      5.00000000      5.00000000
      5.00000000      5.00000000      5.00000000      5.00000000      0.60000000      0.60000000      0.60000000      0.60000000      0.60000000      0.60000000      0.60000000      0.60000000      0.60000000      0.60000000      0.60000000      0.60000000      0.60000000      0.60000000      0.60000000      0.60000000
      0.60000000      0.60000000      0.60000000      0.60000000      0.60000000      0.60000000      0.60000000      0.60000000      0.60000000      0.60000000      0.60000000      0.60000000      0.60000000      0.60000000      0.60000000      0.60000000      0.60000000      0.60000000      0.60000000      0.60000000
      0.60000000      0.60000000      0.60000000      0.60000000      0.60000000      0.60000000      0.60000000      0.60000000      0.60000000      0.60000000      0.60000000      0.60000000      0.60000000      0.60000000      0.60000000      0.60000000      0.60000000      0.60000000      0.60000000      0.60000000
      0.60000000      0.60000000      0.60000000      0.60000000      0.60000000      0.60000000      0.60000000      0.60000000      0.60000000      0.60000000      0.60000000      0.60000000      0.60000000      0.60000000      0.60000000      0.60000000      0.60000000      0.60000000      0.60000000      0.60000000
      0.60000000      0.60000000      0.60000000      0.60000000      0.60000000      0.60000000      0.60000000      0.60000000      0.60000000      0.60000000      0.60000000      0.60000000      0.60000000      0.60000000</v>
    <i name="NUPDOWN">     -1.00000000</i>
    <i type="logical" name="LSORBIT"> F  </i>
    <v name="SAXIS">      0.00000000      0.00000000      1.00000000</v>
    <i type="logical" name="LSPIRAL"> F  </i>
    <v name="QSPIRAL">      0.00000000      0.00000000      0.00000000</v>
    <i type="logical" name="LZEROZ"> F  </i>
   </separator>
   <separator name="electronic exchange-correlation" >
    <i type="logical" name="LASPH"> F  </i>
    <i type="logical" name="LMETAGGA"> F  </i>
   </separator>
   <separator name="electronic convergence" >
    <i type="int" name="NELM">    40</i>
    <i type="int" name="NELMDL">     0</i>
    <i type="int" name="NELMIN">     8</i>
    <i name="ENINI">    520.00000000</i>
    <separator name="electronic convergence detail" >
     <i type="logical" name="LDIAG"> T  </i>
     <i type="logical" name="LSUBROT"> F  </i>
     <i name="WEIMIN">      0.00100000</i>
     <i name="EBREAK">      0.00000003</i>
     <i name="DEPER">      0.30000000</i>
     <i type="int" name="NRMM">     4</i>
     <i name="TIME">      0.40000000</i>
    </separator>
   </separator>
   <separator name="electronic mixer" >
    <i name="AMIX">      0.40000000</i>
    <i name="BMIX">      1.00000000</i>
    <i name="AMIN">      0.10000000</i>
    <i name="AMIX_MAG">      1.60000000</i>
    <i name="BMIX_MAG">      1.00000000</i>
    <separator name="electronic mixer details" >
     <i type="int" name="IMIX">     4</i>
     <i type="logical" name="MIXFIRST"> F  </i>
     <i type="int" name="MAXMIX">   -45</i>
     <i name="WC">    100.00000000</i>
     <i type="int" name="INIMIX">     1</i>
     <i type="int" name="MIXPRE">     1</i>
     <i type="int" name="MREMOVE">     5</i>
    </separator>
   </separator>
   <separator name="electronic dipolcorrection" >
    <i type="logical" name="LDIPOL"> F  </i>
    <i type="logical" name="LMONO"> F  </i>
    <i type="int" name="IDIPOL">     0</i>
    <i name="EPSILON">      1.00000000</i>
    <v name="DIPOL">   -100.00000000   -100.00000000   -100.00000000</v>
    <i name="EFIELD">      0.00000000</i>
   </separator>
  </separator>
  <separator name="grids" >
   <i type="int" name="NGX">    64</i>
   <i type="int" name="NGY">    64</i>
   <i type="int" name="NGZ">    90</i>
   <i type="int" name="NGXF">   128</i>
   <i type="int" name="NGYF">   128</i>
   <i type="int" name="NGZF">   180</i>
   <i type="logical" name="ADDGRID"> F  </i>
  </separator>
  <separator name="ionic" >
   <i type="int" name="NSW">    30</i>
   <i type="int" name="IBRION">     2</i>
   <i type="int" name="ISIF">     3</i>
   <i name="PSTRESS">      0.00000000</i>
   <i name="EDIFFG">     -0.03000000</i>
   <i type="int" name="NFREE">     1</i>
   <i name="POTIM">      0.50000000</i>
   <i name="SMASS">     -3.00000000</i>
   <i name="SCALEE">      1.00000000</i>
  </separator>
  <separator name="ionic md" >
   <i name="TEBEG">      0.00010000</i>
   <i name="TEEND">      0.00010000</i>
   <i type="int" name="NBLOCK">     1</i>
   <i type="int" name="KBLOCK">    30</i>
   <i type="int" name="NPACO">   256</i>
   <i name="APACO">     16.00000000</i>
  </separator>
  <separator name="symmetry" >
   <i type="int" name="ISYM">     2</i>
   <i name="SYMPREC">      0.00001000</i>
  </separator>
  <separator name="dos" >
   <i type="logical" name="LORBIT"> F  </i>
   <v name="RWIGS">     -1.00000000     -1.00000000     -1.00000000     -1.00000000</v>
   <i type="int" name="NEDOS">   301</i>
   <i name="EMIN">     10.00000000</i>
   <i name="EMAX">    -10.00000000</i>
   <i name="EFERMI">      0.00000000</i>
  </separator>
  <separator name="writing" >
   <i type="int" name="NWRITE">     2</i>
   <i type="logical" name="LWAVE"> T  </i>
   <i type="logical" name="LCHARG"> T  </i>
   <i type="logical" name="LPARD"> F  </i>
   <i type="logical" name="LVTOT"> F  </i>
   <i type="logical" name="LVHAR"> F  </i>
   <i type="logical" name="LELF"> F  </i>
   <i type="logical" name="LOPTICS"> F  </i>
   <v name="STM">      0.00000000      0.00000000      0.00000000      0.00000000      0.00000000      0.00000000      0.00000000</v>
  </separator>
  <separator name="performance" >
   <i type="int" name="NPAR">     2</i>
   <i type="int" name="NSIM">     4</i>
   <i type="int" name="NBLK">    -1</i>
   <i type="logical" name="LPLANE"> T  </i>
   <i type="logical" name="LSCALAPACK"> T  </i>
   <i type="logical" name="LSCAAWARE"> F  </i>
   <i type="logical" name="LSCALU"> F  </i>
   <i type="logical" name="LASYNC"> F  </i>
   <i type="logical" name="LORBITALREAL"> F  </i>
  </separator>
  <separator name="miscellaneous" >
   <i type="int" name="IDIOT">     3</i>
   <i type="logical" name="LMUSIC"> F  </i>
   <v name="POMASS">     87.62000000     47.88000000     55.84700000     16.00000000</v>
   <v name="DARWINR">      0.00000000      0.00000000      0.00000000      0.00000000</v>
   <v name="DARWINV">      1.00000000      1.00000000      1.00000000      1.00000000</v>
   <i type="logical" name="LCORR"> T  </i>
  </separator>
  <i type="logical" name="GGA_COMPAT"> T  </i>
  <i type="logical" name="LBERRY"> F  </i>
  <i type="int" name="ICORELEVEL">     0</i>
  <i type="logical" name="LDAU"> T  </i>
  <v type="int" name="LDAUTYPE">     2</v>
  <v type="int" name="LDAUL">     0</v>
  <v name="LDAUU">      0.00000000</v>
  <v name="LDAUJ">      0.00000000</v>
  <i type="int" name="LDAUPRINT">     1</i>
  <i type="int" name="I_CONSTRAINED_M">     0</i>
  <separator name="electronic exchange-correlation" >
   <i type="string" name="GGA">--</i>
   <i type="int" name="VOSKOWN">     0</i>
   <i type="logical" name="LHFCALC"> F  </i>
   <i type="string" name="PRECFOCK"></i>
   <i type="logical" name="LSYMGRAD"> F  </i>
   <i type="logical" name="LHFONE"> F  </i>
   <i type="logical" name="LRHFCALC"> F  </i>
   <i type="logical" name="LTHOMAS"> F  </i>
   <i type="logical" name="LMODELHF"> F  </i>
   <i name="ENCUT4O">     -1.00000000</i>
   <i type="int" name="EXXOEP">     0</i>
   <i type="int" name="FOURORBIT">     0</i>
   <i name="AEXX">      0.00000000</i>
   <i name="HFALPHA">      0.00000000</i>
   <i name="MCALPHA">      0.00000000</i>
   <i name="ALDAX">      1.00000000</i>
   <i name="AGGAX">      1.00000000</i>
   <i name="ALDAC">      1.00000000</i>
   <i name="AGGAC">      1.00000000</i>
   <i type="int" name="NKREDX">     1</i>
   <i type="int" name="NKREDY">     1</i>
   <i type="int" name="NKREDZ">     1</i>
   <i type="logical" name="SHIFTRED"> F  </i>
   <i type="logical" name="ODDONLY"> F  </i>
   <i type="logical" name="EVENONLY"> F  </i>
   <i type="int" name="LMAXFOCK">     0</i>
   <i type="int" name="NMAXFOCKAE">     0</i>
   <i type="logical" name="LFOCKAEDFT"> F  </i>
   <i name="HFSCREEN">      0.00000000</i>
   <i name="HFSCREENC">      0.00000000</i>
   <i type="int" name="NBANDSGWLOW">     0</i>
  </separator>
  <separator name="vdW DFT" >
   <i type="logical" name="LUSE_VDW"> F  </i>
   <i name="Zab_VDW">     -0.84910000</i>
   <i name="PARAM1">      0.12340000</i>
   <i name="PARAM2">      1.00000000</i>
   <i name="PARAM3">      0.00000000</i>
  </separator>
  <separator name="model GW" >
   <i type="int" name="MODEL_GW">     0</i>
   <i name="MODEL_EPS0">      7.82925351</i>
   <i name="MODEL_ALPHA">      1.00000000</i>
  </separator>
  <separator name="linear response parameters" >
   <i type="logical" name="LEPSILON"> F  </i>
   <i type="logical" name="LRPA"> F  </i>
   <i type="logical" name="LNABLA"> F  </i>
   <i type="logical" name="LVEL"> F  </i>
   <i type="int" name="KINTER">     0</i>
   <i name="CSHIFT">      0.10000000</i>
   <i name="OMEGAMAX">     -1.00000000</i>
   <i name="DEG_THRESHOLD">      0.00200000</i>
  </separator>
  <separator name="orbital magnetization" >
   <i type="logical" name="NUCIND"> F  </i>
   <v name="MAGPOS">      0.00000000      0.00000000      0.00000000</v>
   <i type="logical" name="LNICSALL"> T  </i>
   <i type="logical" name="ORBITALMAG"> F  </i>
   <i type="logical" name="LMAGBLOCH"> F  </i>
   <i type="logical" name="LCHIMAG"> F  </i>
   <i type="logical" name="LGAUGE"> T  </i>
   <i type="int" name="MAGATOM">     0</i>
   <v name="MAGDIPOL">      0.00000000      0.00000000      0.00000000</v>
   <v name="AVECCONST">      0.00000000      0.00000000      0.00000000</v>
  </separator>
  <separator name="response functions" >
   <i type="logical" name="LADDER"> F  </i>
   <i type="logical" name="LFXC"> F  </i>
   <i type="logical" name="LHARTREE"> T  </i>
   <i type="int" name="IBSE">     0</i>
   <v type="int" name="KPOINT">    -1     0     0     0</v>
   <i type="logical" name="LTCTE"> F  </i>
   <i type="logical" name="LTETE"> F  </i>
   <i type="logical" name="LTRIPLET"> F  </i>
   <i type="logical" name="LFXCEPS"> F  </i>
   <i type="logical" name="LFXHEG"> F  </i>
   <i type="int" name="NATURALO">     0</i>
   <i type="logical" name="L2ORDER"> F  </i>
   <i type="logical" name="LUSEW"> F  </i>
   <i name="ENCUTGW">     -2.00000000</i>
   <i name="ENCUTGWSOFT">     -2.00000000</i>
   <i name="ENCUTLF">     -1.00000000</i>
   <i type="int" name="LMAXMP2">    -1</i>
   <i name="SCISSOR">      0.00000000</i>
   <i type="int" name="NOMEGA">     0</i>
   <i type="int" name="NOMEGAR">     0</i>
   <i type="int" name="NBANDSGW">    -1</i>
   <i type="int" name="NBANDSO">    -1</i>
   <i type="int" name="NBANDSV">    -1</i>
   <i type="int" name="NELM">    40</i>
   <i type="int" name="NELMHF">     1</i>
   <i type="int" name="DIM">     3</i>
   <i type="int" name="ANTIRES">     0</i>
   <i name="OMEGAMAX">    -30.00000000</i>
   <i name="OMEGAMIN">    -30.00000000</i>
   <i name="OMEGATL">   -200.00000000</i>
   <i type="int" name="OMEGAGRID">     0</i>
   <i name="CSHIFT">     -0.10000000</i>
   <i type="logical" name="SELFENERGY"> F  </i>
   <i type="logical" name="LSPECTRAL"> F  </i>
   <i type="logical" name="LSPECTRALGW"> F  </i>
   <i type="logical" name="LSINGLES"> F  </i>
   <i type="logical" name="LFERMIGW"> F  </i>
   <i type="logical" name="ODDONLYGW"> F  </i>
   <i type="logical" name="EVENONLYGW"> F  </i>
   <i type="int" name="NKREDLFX">     1</i>
   <i type="int" name="NKREDLFY">     1</i>
   <i type="int" name="NKREDLFZ">     1</i>
   <i type="int" name="MAXMEM">  1800</i>
   <i type="int" name="TELESCOPE">     0</i>
   <i type="int" name="TAUPAR">     1</i>
   <i type="int" name="OMEGAPAR">    -1</i>
   <i name="LAMBDA">      1.00000000</i>
  </separator>
  <separator name="External order field" >
   <i name="OFIELD_KAPPA">      0.00000000</i>
   <v name="OFIELD_K">      0.00000000      0.00000000      0.00000000</v>
   <i name="OFIELD_Q6_NEAR">      0.00000000</i>
   <i name="OFIELD_Q6_FAR">      0.00000000</i>
   <i name="OFIELD_A">      0.00000000</i>
  </separator>
 </parameters>
 <atominfo>
  <atoms>     154 </atoms>
  <types>       4 </types>
  <array name="atoms" >
   <dimension dim="1">ion</dimension>
   <field type="string">element</field>
   <field type="int">atomtype</field>
   <set>
    <rc><c>Sr</c><c>   1</c></rc>
    <rc><c>Sr</c><c>   1</c></rc>
    <rc><c>Sr</c><c>   1</c></rc>
    <rc><c>Sr</c><c>   1</c></rc>
    <rc><c>Sr</c><c>   1</c></rc>
    <rc><c>Sr</c><c>   1</c></rc>
    <rc><c>Sr</c><c>   1</c></rc>
    <rc><c>Sr</c><c>   1</c></rc>
    <rc><c>Sr</c><c>   1</c></rc>
    <rc><c>Sr</c><c>   1</c></rc>
    <rc><c>Sr</c><c>   1</c></rc>
    <rc><c>Sr</c><c>   1</c></rc>
    <rc><c>Sr</c><c>   1</c></rc>
    <rc><c>Sr</c><c>   1</c></rc>
    <rc><c>Sr</c><c>   1</c></rc>
    <rc><c>Sr</c><c>   1</c></rc>
    <rc><c>Sr</c><c>   1</c></rc>
    <rc><c>Sr</c><c>   1</c></rc>
    <rc><c>Sr</c><c>   1</c></rc>
    <rc><c>Sr</c><c>   1</c></rc>
    <rc><c>Sr</c><c>   1</c></rc>
    <rc><c>Sr</c><c>   1</c></rc>
    <rc><c>Sr</c><c>   1</c></rc>
    <rc><c>Sr</c><c>   1</c></rc>
    <rc><c>Sr</c><c>   1</c></rc>
    <rc><c>Sr</c><c>   1</c></rc>
    <rc><c>Sr</c><c>   1</c></rc>
    <rc><c>Sr</c><c>   1</c></rc>
    <rc><c>Sr</c><c>   1</c></rc>
    <rc><c>Sr</c><c>   1</c></rc>
    <rc><c>Sr</c><c>   1</c></rc>
    <rc><c>Sr</c><c>   1</c></rc>
    <rc><c>Ti</c><c>   2</c></rc>
    <rc><c>Ti</c><c>   2</c></rc>
    <rc><c>Ti</c><c>   2</c></rc>
    <rc><c>Ti</c><c>   2</c></rc>
    <rc><c>Ti</c><c>   2</c></rc>
    <rc><c>Ti</c><c>   2</c></rc>
    <rc><c>Ti</c><c>   2</c></rc>
    <rc><c>Ti</c><c>   2</c></rc>
    <rc><c>Ti</c><c>   2</c></rc>
    <rc><c>Ti</c><c>   2</c></rc>
    <rc><c>Ti</c><c>   2</c></rc>
    <rc><c>Ti</c><c>   2</c></rc>
    <rc><c>Ti</c><c>   2</c></rc>
    <rc><c>Ti</c><c>   2</c></rc>
    <rc><c>Ti</c><c>   2</c></rc>
    <rc><c>Ti</c><c>   2</c></rc>
    <rc><c>Ti</c><c>   2</c></rc>
    <rc><c>Ti</c><c>   2</c></rc>
    <rc><c>Ti</c><c>   2</c></rc>
    <rc><c>Ti</c><c>   2</c></rc>
    <rc><c>Fe</c><c>   3</c></rc>
    <rc><c>Fe</c><c>   3</c></rc>
    <rc><c>Fe</c><c>   3</c></rc>
    <rc><c>Fe</c><c>   3</c></rc>
    <rc><c>Fe</c><c>   3</c></rc>
    <rc><c>Fe</c><c>   3</c></rc>
    <rc><c>Fe</c><c>   3</c></rc>
    <rc><c>Fe</c><c>   3</c></rc>
    <rc><c>Fe</c><c>   3</c></rc>
    <rc><c>Fe</c><c>   3</c></rc>
    <rc><c>Fe</c><c>   3</c></rc>
    <rc><c>Fe</c><c>   3</c></rc>
    <rc><c>O </c><c>   4</c></rc>
    <rc><c>O </c><c>   4</c></rc>
    <rc><c>O </c><c>   4</c></rc>
    <rc><c>O </c><c>   4</c></rc>
    <rc><c>O </c><c>   4</c></rc>
    <rc><c>O </c><c>   4</c></rc>
    <rc><c>O </c><c>   4</c></rc>
    <rc><c>O </c><c>   4</c></rc>
    <rc><c>O </c><c>   4</c></rc>
    <rc><c>O </c><c>   4</c></rc>
    <rc><c>O </c><c>   4</c></rc>
    <rc><c>O </c><c>   4</c></rc>
    <rc><c>O </c><c>   4</c></rc>
    <rc><c>O </c><c>   4</c></rc>
    <rc><c>O </c><c>   4</c></rc>
    <rc><c>O </c><c>   4</c></rc>
    <rc><c>O </c><c>   4</c></rc>
    <rc><c>O </c><c>   4</c></rc>
    <rc><c>O </c><c>   4</c></rc>
    <rc><c>O </c><c>   4</c></rc>
    <rc><c>O </c><c>   4</c></rc>
    <rc><c>O </c><c>   4</c></rc>
    <rc><c>O </c><c>   4</c></rc>
    <rc><c>O </c><c>   4</c></rc>
    <rc><c>O </c><c>   4</c></rc>
    <rc><c>O </c><c>   4</c></rc>
    <rc><c>O </c><c>   4</c></rc>
    <rc><c>O </c><c>   4</c></rc>
    <rc><c>O </c><c>   4</c></rc>
    <rc><c>O </c><c>   4</c></rc>
    <rc><c>O </c><c>   4</c></rc>
    <rc><c>O </c><c>   4</c></rc>
    <rc><c>O </c><c>   4</c></rc>
    <rc><c>O </c><c>   4</c></rc>
    <rc><c>O </c><c>   4</c></rc>
    <rc><c>O </c><c>   4</c></rc>
    <rc><c>O </c><c>   4</c></rc>
    <rc><c>O </c><c>   4</c></rc>
    <rc><c>O </c><c>   4</c></rc>
    <rc><c>O </c><c>   4</c></rc>
    <rc><c>O </c><c>   4</c></rc>
    <rc><c>O </c><c>   4</c></rc>
    <rc><c>O </c><c>   4</c></rc>
    <rc><c>O </c><c>   4</c></rc>
    <rc><c>O </c><c>   4</c></rc>
    <rc><c>O </c><c>   4</c></rc>
    <rc><c>O </c><c>   4</c></rc>
    <rc><c>O </c><c>   4</c></rc>
    <rc><c>O </c><c>   4</c></rc>
    <rc><c>O </c><c>   4</c></rc>
    <rc><c>O </c><c>   4</c></rc>
    <rc><c>O </c><c>   4</c></rc>
    <rc><c>O </c><c>   4</c></rc>
    <rc><c>O </c><c>   4</c></rc>
    <rc><c>O </c><c>   4</c></rc>
    <rc><c>O </c><c>   4</c></rc>
    <rc><c>O </c><c>   4</c></rc>
    <rc><c>O </c><c>   4</c></rc>
    <rc><c>O </c><c>   4</c></rc>
    <rc><c>O </c><c>   4</c></rc>
    <rc><c>O </c><c>   4</c></rc>
    <rc><c>O </c><c>   4</c></rc>
    <rc><c>O </c><c>   4</c></rc>
    <rc><c>O </c><c>   4</c></rc>
    <rc><c>O </c><c>   4</c></rc>
    <rc><c>O </c><c>   4</c></rc>
    <rc><c>O </c><c>   4</c></rc>
    <rc><c>O </c><c>   4</c></rc>
    <rc><c>O </c><c>   4</c></rc>
    <rc><c>O </c><c>   4</c></rc>
    <rc><c>O </c><c>   4</c></rc>
    <rc><c>O </c><c>   4</c></rc>
    <rc><c>O </c><c>   4</c></rc>
    <rc><c>O </c><c>   4</c></rc>
    <rc><c>O </c><c>   4</c></rc>
    <rc><c>O </c><c>   4</c></rc>
    <rc><c>O </c><c>   4</c></rc>
    <rc><c>O </c><c>   4</c></rc>
    <rc><c>O </c><c>   4</c></rc>
    <rc><c>O </c><c>   4</c></rc>
    <rc><c>O </c><c>   4</c></rc>
    <rc><c>O </c><c>   4</c></rc>
    <rc><c>O </c><c>   4</c></rc>
    <rc><c>O </c><c>   4</c></rc>
    <rc><c>O </c><c>   4</c></rc>
    <rc><c>O </c><c>   4</c></rc>
    <rc><c>O </c><c>   4</c></rc>
    <rc><c>O </c><c>   4</c></rc>
    <rc><c>O </c><c>   4</c></rc>
    <rc><c>O </c><c>   4</c></rc>
   </set>
  </array>
  <array name="atomtypes" >
   <dimension dim="1">type</dimension>
   <field type="int">atomspertype</field>
   <field type="string">element</field>
   <field>mass</field>
   <field>valence</field>
   <field type="string">pseudopotential</field>
   <set>
    <rc><c>  32</c><c>Sr</c><c>     87.62000000</c><c>     10.00000000</c><c>  PAW_PBE Sr_sv 07Sep2000               </c></rc>
    <rc><c>  20</c><c>Ti</c><c>     47.88000000</c><c>      4.00000000</c><c>  PAW_PBE Ti 08Apr2002                  </c></rc>
    <rc><c>  12</c><c>Fe</c><c>     55.84700000</c><c>      8.00000000</c><c>  PAW_PBE Fe 06Sep2000                  </c></rc>
    <rc><c>  90</c><c>O </c><c>     16.00000000</c><c>      6.00000000</c><c>  PAW_PBE O 08Apr2002                   </c></rc>
   </set>
  </array>
 </atominfo>
 <structure name="initialpos" >
  <crystal>
   <varray name="basis" >
    <v>      11.22145791      -0.05638612      -0.00336583 </v>
    <v>      -0.05635634      11.21588146      -0.00369722 </v>
    <v>      -0.00489089      -0.00554229      15.96681105 </v>
   </varray>
   <i name="volume">   2009.50840073 </i>
   <varray name="rec_basis" >
    <v>       0.08911724       0.00044780       0.00002745 </v>
    <v>       0.00044803       0.08916155       0.00003109 </v>
    <v>       0.00001889       0.00002074       0.06262993 </v>
   </varray>
  </crystal>
  <varray name="positions" >
   <v>       0.98892231       0.26138421       0.12085595 </v>
   <v>       0.00124598       0.25920833       0.61869238 </v>
   <v>       0.00236675       0.73837948       0.12620434 </v>
   <v>       0.01339010       0.73685372       0.62108345 </v>
   <v>       0.50714325       0.24775455       0.12104520 </v>
   <v>       0.48811603       0.23856450       0.63202700 </v>
   <v>       0.49607644       0.74864637       0.12332787 </v>
   <v>       0.50176998       0.76212173       0.62406002 </v>
   <v>       0.98860889       0.25969939       0.37572557 </v>
   <v>       0.99752292       0.25811526       0.87655458 </v>
   <v>       0.00513701       0.73855497       0.38060950 </v>
   <v>       0.00358117       0.73922765       0.87296159 </v>
   <v>       0.50711582       0.24184694       0.37678502 </v>
   <v>       0.49622517       0.24816144       0.87927698 </v>
   <v>       0.50115774       0.76195178       0.37928413 </v>
   <v>       0.49903874       0.74778187       0.87219058 </v>
   <v>       0.26046298       0.99076170       0.12477367 </v>
   <v>       0.26552152       0.98121869       0.62341453 </v>
   <v>       0.24832083       0.50898578       0.11833982 </v>
   <v>       0.24478158       0.50388251       0.62996193 </v>
   <v>       0.73763307       0.00075345       0.12359382 </v>
   <v>       0.74100535       0.00867247       0.62824204 </v>
   <v>       0.74827652       0.49848950       0.12559418 </v>
   <v>       0.75822580       0.52199144       0.62319353 </v>
   <v>       0.26309642       0.98568534       0.37946200 </v>
   <v>       0.25778889       0.98982681       0.87373497 </v>
   <v>       0.23949685       0.50795750       0.37888729 </v>
   <v>       0.25698103       0.50207363       0.87311366 </v>
   <v>       0.74493234       0.99982956       0.37568827 </v>
   <v>       0.73615153       0.99733324       0.87861130 </v>
   <v>       0.75729836       0.50529959       0.37684471 </v>
   <v>       0.74685950       0.50325178       0.87870514 </v>
   <v>       0.00040263       0.99947339       0.00787472 </v>
   <v>       0.00398236       0.00156113       0.50607776 </v>
   <v>       0.99857033       0.49864561       0.99829430 </v>
   <v>       0.49761667       0.99881076       0.99939803 </v>
   <v>       0.50012476       0.49873190       0.99852009 </v>
   <v>       0.49794907       0.49922603       0.50905043 </v>
   <v>       0.24853472       0.24904205       0.99739854 </v>
   <v>       0.24715144       0.24622145       0.50648946 </v>
   <v>       0.75009811       0.75007113       0.00102209 </v>
   <v>       0.75489429       0.75744230       0.50036228 </v>
   <v>       0.24857807       0.24891908       0.24440003 </v>
   <v>       0.24571548       0.24407277       0.75601911 </v>
   <v>       0.25185320       0.74572993       0.25189232 </v>
   <v>       0.25999991       0.74528658       0.75038593 </v>
   <v>       0.74675707       0.25188091       0.24748512 </v>
   <v>       0.74712826       0.74802219       0.25210953 </v>
   <v>       0.75143172       0.75612377       0.75111833 </v>
   <v>       0.00259531       0.00079664       0.24518838 </v>
   <v>       0.99918017       0.49948998       0.25167393 </v>
   <v>       0.50096912       0.00042887       0.25203822 </v>
   <v>       0.99788962       0.49828159       0.50256306 </v>
   <v>       0.50319291       0.00302584       0.50316872 </v>
   <v>       0.25019092       0.74866728       0.99688771 </v>
   <v>       0.25478960       0.74616867       0.49790875 </v>
   <v>       0.74902410       0.25081177       0.99872197 </v>
   <v>       0.74921973       0.25254912       0.48743336 </v>
   <v>       0.72934873       0.25036847       0.76007477 </v>
   <v>       0.01390439       0.99092663       0.74111974 </v>
   <v>       0.00890353       0.50848233       0.75080964 </v>
   <v>       0.49739749       0.99899817       0.75051699 </v>
   <v>       0.49533569       0.49729731       0.24020658 </v>
   <v>       0.50523523       0.49831837       0.74893376 </v>
   <v>       0.11947211       0.13100576       0.27819412 </v>
   <v>       0.10418839       0.12200847       0.77773101 </v>
   <v>       0.11456459       0.63158856       0.25308527 </v>
   <v>       0.12657232       0.62667889       0.75106503 </v>
   <v>       0.61638099       0.13317863       0.24662427 </v>
   <v>       0.60303231       0.14099719       0.75192507 </v>
   <v>       0.61321835       0.63117825       0.25396153 </v>
   <v>       0.62134358       0.64194736       0.73835807 </v>
   <v>       0.37579472       0.36230088       0.27514196 </v>
   <v>       0.37911830       0.35780594       0.74983360 </v>
   <v>       0.38504388       0.86587510       0.25079193 </v>
   <v>       0.38823318       0.86105211       0.74925308 </v>
   <v>       0.88031013       0.36835485       0.24479245 </v>
   <v>       0.89041334       0.87227884       0.26674265 </v>
   <v>       0.88576031       0.89582510       0.77835718 </v>
   <v>       0.36268295       0.11767393       0.25889622 </v>
   <v>       0.35139224       0.10958842       0.74920411 </v>
   <v>       0.36549262       0.61238464       0.25448371 </v>
   <v>       0.37137679       0.61059322       0.75120589 </v>
   <v>       0.87489175       0.11436650       0.25805570 </v>
   <v>       0.85502654       0.17537693       0.70991361 </v>
   <v>       0.86685269       0.61807345       0.24716941 </v>
   <v>       0.87153316       0.62447674       0.75200564 </v>
   <v>       0.13114626       0.37560182       0.26106278 </v>
   <v>       0.11955564       0.36829295       0.75035206 </v>
   <v>       0.13235661       0.88858231       0.25593893 </v>
   <v>       0.13584454       0.87536922       0.74915159 </v>
   <v>       0.62900195       0.38281031       0.25252577 </v>
   <v>       0.65397811       0.39487783       0.73107545 </v>
   <v>       0.63595557       0.88478122       0.24848546 </v>
   <v>       0.63934008       0.88869892       0.74986491 </v>
   <v>       0.36013573       0.38525846       0.00059806 </v>
   <v>       0.36617473       0.37229673       0.48243387 </v>
   <v>       0.36272261       0.88671853       0.00474875 </v>
   <v>       0.38080287       0.87212642       0.49761608 </v>
   <v>       0.86567188       0.38582011       0.01048826 </v>
   <v>       0.86033031       0.37537315       0.51350366 </v>
   <v>       0.86439291       0.88899875       0.99539154 </v>
   <v>       0.88446163       0.88333840       0.47622935 </v>
   <v>       0.13509689       0.10979739       0.99124112 </v>
   <v>       0.12675680       0.12179163       0.46995276 </v>
   <v>       0.13335121       0.61117355       0.99346721 </v>
   <v>       0.12927108       0.61675981       0.50425417 </v>
   <v>       0.63367873       0.11389937       0.99869641 </v>
   <v>       0.62857360       0.14372867       0.52081582 </v>
   <v>       0.63705031       0.61331709       0.00854481 </v>
   <v>       0.62590686       0.62996379       0.51057444 </v>
   <v>       0.11214393       0.35999940       0.00082947 </v>
   <v>       0.12120861       0.36267496       0.48939791 </v>
   <v>       0.10615054       0.86911472       0.98503745 </v>
   <v>       0.12356159       0.87759886       0.49279824 </v>
   <v>       0.61206069       0.36379045       0.00424518 </v>
   <v>       0.61458396       0.38961841       0.47131852 </v>
   <v>       0.61421753       0.86409248       0.00406875 </v>
   <v>       0.63628266       0.88325491       0.50301240 </v>
   <v>       0.38384931       0.13787294       0.00365411 </v>
   <v>       0.37043575       0.12935736       0.48848335 </v>
   <v>       0.38789465       0.63313687       0.99943525 </v>
   <v>       0.38638922       0.61786914       0.47625163 </v>
   <v>       0.89217529       0.12757771       0.98510964 </v>
   <v>       0.88256076       0.12521981       0.49282745 </v>
   <v>       0.88619118       0.63632881       0.00166221 </v>
   <v>       0.87809158       0.63289454       0.50160116 </v>
   <v>       0.00640447       0.00606708       0.12670970 </v>
   <v>       0.00861064       0.00224134       0.62225446 </v>
   <v>       0.01060887       0.50022485       0.12648470 </v>
   <v>       0.99253362       0.49005737       0.63048663 </v>
   <v>       0.49650787       0.00368158       0.12734038 </v>
   <v>       0.49279923       0.00205884       0.62541431 </v>
   <v>       0.48829291       0.49130474       0.12434877 </v>
   <v>       0.48338171       0.48566985       0.62267974 </v>
   <v>       0.98793466       0.49808501       0.37506153 </v>
   <v>       0.98418874       0.48726061       0.87303023 </v>
   <v>       0.51256731       0.00299342       0.37510406 </v>
   <v>       0.49566415       0.99747225       0.87766402 </v>
   <v>       0.51061925       0.49529982       0.87411231 </v>
   <v>       0.25537716       0.25436113       0.87754944 </v>
   <v>       0.24529689       0.74969386       0.37260082 </v>
   <v>       0.25741765       0.74842334       0.87338705 </v>
   <v>       0.75103440       0.24434017       0.36988246 </v>
   <v>       0.76096829       0.26735310       0.87481977 </v>
   <v>       0.74219519       0.74411139       0.37571624 </v>
   <v>       0.74144341       0.74510430       0.87777865 </v>
   <v>       0.24223233       0.24481375       0.12831612 </v>
   <v>       0.23745487       0.23613236       0.62323816 </v>
   <v>       0.24092528       0.75033174       0.12639072 </v>
   <v>       0.25868974       0.74331192       0.62344235 </v>
   <v>       0.75565013       0.23736547       0.12570793 </v>
   <v>       0.75839467       0.75771558       0.12773311 </v>
   <v>       0.77754170       0.77300035       0.62622018 </v>
  </varray>
 </structure>
 <calculation>
  <scstep>
   <time name="dav">  612.79  612.77</time>
   <time name="total">  619.91  620.02</time>
   <energy>
    <i name="alphaZ">   5610.33216266 </i>
    <i name="ewald"> -61557.37552668 </i>
    <i name="hartreedc"> -16983.50685184 </i>
    <i name="XCdc">   3073.67596778 </i>
    <i name="pawpsdc"> 113282.44497111 </i>
    <i name="pawaedc">-112334.18697193 </i>
    <i name="eentropy">     -0.00000000 </i>
    <i name="bandstr">  -7094.86038424 </i>
    <i name="atom">  74916.81196153 </i>
    <i name="e_fr_energy">  -1086.66467162 </i>
    <i name="e_wo_entrp">  -1086.66467162 </i>
    <i name="e_0_energy">  -1086.66467162 </i>
   </energy>
  </scstep>
  <scstep>
   <time name="diag">   64.92   64.92</time>
   <time name="diis">   62.63   62.63</time>
   <time name="orth">   33.42   33.42</time>
   <time name="total">  168.12  168.12</time>
   <energy>
    <i name="e_fr_energy">  -1086.66466949 </i>
    <i name="e_wo_entrp">  -1086.66466949 </i>
    <i name="e_0_energy">  -1086.66466949 </i>
   </energy>
  </scstep>
  <scstep>
   <time name="diag">   65.02   65.02</time>
   <time name="diis">   60.04   60.04</time>
   <time name="orth">   33.46   33.46</time>
   <time name="total">  165.63  165.72</time>
   <energy>
    <i name="e_fr_energy">  -1086.66466973 </i>
    <i name="e_wo_entrp">  -1086.66466973 </i>
    <i name="e_0_energy">  -1086.66466973 </i>
   </energy>
  </scstep>
  <scstep>
   <time name="diag">   64.97   64.97</time>
   <time name="diis">   48.74   48.74</time>
   <time name="orth">   33.47   33.47</time>
   <time name="total">  154.32  154.42</time>
   <energy>
    <i name="e_fr_energy">  -1086.66466965 </i>
    <i name="e_wo_entrp">  -1086.66466965 </i>
    <i name="e_0_energy">  -1086.66466965 </i>
   </energy>
  </scstep>
  <scstep>
   <time name="diag">   65.06   65.06</time>
   <time name="diis">   48.10   48.10</time>
   <time name="orth">   33.43   33.42</time>
   <time name="total">  153.72  153.77</time>
   <energy>
    <i name="e_fr_energy">  -1086.66466956 </i>
    <i name="e_wo_entrp">  -1086.66466956 </i>
    <i name="e_0_energy">  -1086.66466956 </i>
   </energy>
  </scstep>
  <scstep>
   <time name="diag">   65.02   65.03</time>
   <time name="diis">   44.66   44.66</time>
   <time name="orth">   33.45   33.45</time>
   <time name="total">  150.26  150.30</time>
   <energy>
    <i name="e_fr_energy">  -1086.66466951 </i>
    <i name="e_wo_entrp">  -1086.66466951 </i>
    <i name="e_0_energy">  -1086.66466951 </i>
   </energy>
  </scstep>
  <scstep>
   <time name="diag">   65.04   65.03</time>
   <time name="diis">   43.76   43.77</time>
   <time name="orth">   33.46   33.45</time>
   <time name="total">  149.38  149.51</time>
   <energy>
    <i name="e_fr_energy">  -1086.66466943 </i>
    <i name="e_wo_entrp">  -1086.66466943 </i>
    <i name="e_0_energy">  -1086.66466943 </i>
   </energy>
  </scstep>
  <scstep>
   <time name="diag">   64.92   64.93</time>
   <time name="diis">   42.93   42.93</time>
   <time name="orth">   33.50   33.50</time>
   <time name="total">  142.41  142.49</time>
   <energy>
    <i name="alphaZ">   5610.33216266 </i>
    <i name="ewald"> -61557.37552668 </i>
    <i name="hartreedc"> -16983.50627730 </i>
    <i name="XCdc">   3073.67393840 </i>
    <i name="pawpsdc"> 113281.30324344 </i>
    <i name="pawaedc">-112333.05994647 </i>
    <i name="eentropy">     -0.00000000 </i>
    <i name="bandstr">  -7094.84422495 </i>
    <i name="atom">  74916.81196153 </i>
    <i name="e_fr_energy">  -1086.66466938 </i>
    <i name="e_wo_entrp">  -1086.66466938 </i>
    <i name="e_0_energy">  -1086.66466938 </i>
   </energy>
  </scstep>
  <structure>
   <crystal>
    <varray name="basis" >
     <v>      11.22145791      -0.05638612      -0.00336583 </v>
     <v>      -0.05635634      11.21588146      -0.00369722 </v>
     <v>      -0.00489089      -0.00554229      15.96681105 </v>
    </varray>
    <i name="volume">   2009.50840073 </i>
    <varray name="rec_basis" >
     <v>       0.08911724       0.00044780       0.00002745 </v>
     <v>       0.00044803       0.08916155       0.00003109 </v>
     <v>       0.00001889       0.00002074       0.06262993 </v>
    </varray>
   </crystal>
   <varray name="positions" >
    <v>       0.98892231       0.26138421       0.12085595 </v>
    <v>       0.00124598       0.25920833       0.61869238 </v>
    <v>       0.00236675       0.73837948       0.12620434 </v>
    <v>       0.01339010       0.73685372       0.62108345 </v>
    <v>       0.50714325       0.24775455       0.12104520 </v>
    <v>       0.48811603       0.23856450       0.63202700 </v>
    <v>       0.49607644       0.74864637       0.12332787 </v>
    <v>       0.50176998       0.76212173       0.62406002 </v>
    <v>       0.98860889       0.25969939       0.37572557 </v>
    <v>       0.99752292       0.25811526       0.87655458 </v>
    <v>       0.00513701       0.73855497       0.38060950 </v>
    <v>       0.00358117       0.73922765       0.87296159 </v>
    <v>       0.50711582       0.24184694       0.37678502 </v>
    <v>       0.49622517       0.24816144       0.87927698 </v>
    <v>       0.50115774       0.76195178       0.37928413 </v>
    <v>       0.49903874       0.74778187       0.87219058 </v>
    <v>       0.26046298       0.99076170       0.12477367 </v>
    <v>       0.26552152       0.98121869       0.62341453 </v>
    <v>       0.24832083       0.50898578       0.11833982 </v>
    <v>       0.24478158       0.50388251       0.62996193 </v>
    <v>       0.73763307       0.00075345       0.12359382 </v>
    <v>       0.74100535       0.00867247       0.62824204 </v>
    <v>       0.74827652       0.49848950       0.12559418 </v>
    <v>       0.75822580       0.52199144       0.62319353 </v>
    <v>       0.26309642       0.98568534       0.37946200 </v>
    <v>       0.25778889       0.98982681       0.87373497 </v>
    <v>       0.23949685       0.50795750       0.37888729 </v>
    <v>       0.25698103       0.50207363       0.87311366 </v>
    <v>       0.74493234       0.99982956       0.37568827 </v>
    <v>       0.73615153       0.99733324       0.87861130 </v>
    <v>       0.75729836       0.50529959       0.37684471 </v>
    <v>       0.74685950       0.50325178       0.87870514 </v>
    <v>       0.00040263       0.99947339       0.00787472 </v>
    <v>       0.00398236       0.00156113       0.50607776 </v>
    <v>       0.99857033       0.49864561       0.99829430 </v>
    <v>       0.49761667       0.99881076       0.99939803 </v>
    <v>       0.50012476       0.49873190       0.99852009 </v>
    <v>       0.49794907       0.49922603       0.50905043 </v>
    <v>       0.24853472       0.24904205       0.99739854 </v>
    <v>       0.24715144       0.24622145       0.50648946 </v>
    <v>       0.75009811       0.75007113       0.00102209 </v>
    <v>       0.75489429       0.75744230       0.50036228 </v>
    <v>       0.24857807       0.24891908       0.24440003 </v>
    <v>       0.24571548       0.24407277       0.75601911 </v>
    <v>       0.25185320       0.74572993       0.25189232 </v>
    <v>       0.25999991       0.74528658       0.75038593 </v>
    <v>       0.74675707       0.25188091       0.24748512 </v>
    <v>       0.74712826       0.74802219       0.25210953 </v>
    <v>       0.75143172       0.75612377       0.75111833 </v>
    <v>       0.00259531       0.00079664       0.24518838 </v>
    <v>       0.99918017       0.49948998       0.25167393 </v>
    <v>       0.50096912       0.00042887       0.25203822 </v>
    <v>       0.99788962       0.49828159       0.50256306 </v>
    <v>       0.50319291       0.00302584       0.50316872 </v>
    <v>       0.25019092       0.74866728       0.99688771 </v>
    <v>       0.25478960       0.74616867       0.49790875 </v>
    <v>       0.74902410       0.25081177       0.99872197 </v>
    <v>       0.74921973       0.25254912       0.48743336 </v>
    <v>       0.72934873       0.25036847       0.76007477 </v>
    <v>       0.01390439       0.99092663       0.74111974 </v>
    <v>       0.00890353       0.50848233       0.75080964 </v>
    <v>       0.49739749       0.99899817       0.75051699 </v>
    <v>       0.49533569       0.49729731       0.24020658 </v>
    <v>       0.50523523       0.49831837       0.74893376 </v>
    <v>       0.11947211       0.13100576       0.27819412 </v>
    <v>       0.10418839       0.12200847       0.77773101 </v>
    <v>       0.11456459       0.63158856       0.25308527 </v>
    <v>       0.12657232       0.62667889       0.75106503 </v>
    <v>       0.61638099       0.13317863       0.24662427 </v>
    <v>       0.60303231       0.14099719       0.75192507 </v>
    <v>       0.61321835       0.63117825       0.25396153 </v>
    <v>       0.62134358       0.64194736       0.73835807 </v>
    <v>       0.37579472       0.36230088       0.27514196 </v>
    <v>       0.37911830       0.35780594       0.74983360 </v>
    <v>       0.38504388       0.86587510       0.25079193 </v>
    <v>       0.38823318       0.86105211       0.74925308 </v>
    <v>       0.88031013       0.36835485       0.24479245 </v>
    <v>       0.89041334       0.87227884       0.26674265 </v>
    <v>       0.88576031       0.89582510       0.77835718 </v>
    <v>       0.36268295       0.11767393       0.25889622 </v>
    <v>       0.35139224       0.10958842       0.74920411 </v>
    <v>       0.36549262       0.61238464       0.25448371 </v>
    <v>       0.37137679       0.61059322       0.75120589 </v>
    <v>       0.87489175       0.11436650       0.25805570 </v>
    <v>       0.85502654       0.17537693       0.70991361 </v>
    <v>       0.86685269       0.61807345       0.24716941 </v>
    <v>       0.87153316       0.62447674       0.75200564 </v>
    <v>       0.13114626       0.37560182       0.26106278 </v>
    <v>       0.11955564       0.36829295       0.75035206 </v>
    <v>       0.13235661       0.88858231       0.25593893 </v>
    <v>       0.13584454       0.87536922       0.74915159 </v>
    <v>       0.62900195       0.38281031       0.25252577 </v>
    <v>       0.65397811       0.39487783       0.73107545 </v>
    <v>       0.63595557       0.88478122       0.24848546 </v>
    <v>       0.63934008       0.88869892       0.74986491 </v>
    <v>       0.36013573       0.38525846       0.00059806 </v>
    <v>       0.36617473       0.37229673       0.48243387 </v>
    <v>       0.36272261       0.88671853       0.00474875 </v>
    <v>       0.38080287       0.87212642       0.49761608 </v>
    <v>       0.86567188       0.38582011       0.01048826 </v>
    <v>       0.86033031       0.37537315       0.51350366 </v>
    <v>       0.86439291       0.88899875       0.99539154 </v>
    <v>       0.88446163       0.88333840       0.47622935 </v>
    <v>       0.13509689       0.10979739       0.99124112 </v>
    <v>       0.12675680       0.12179163       0.46995276 </v>
    <v>       0.13335121       0.61117355       0.99346721 </v>
    <v>       0.12927108       0.61675981       0.50425417 </v>
    <v>       0.63367873       0.11389937       0.99869641 </v>
    <v>       0.62857360       0.14372867       0.52081582 </v>
    <v>       0.63705031       0.61331709       0.00854481 </v>
    <v>       0.62590686       0.62996379       0.51057444 </v>
    <v>       0.11214393       0.35999940       0.00082947 </v>
    <v>       0.12120861       0.36267496       0.48939791 </v>
    <v>       0.10615054       0.86911472       0.98503745 </v>
    <v>       0.12356159       0.87759886       0.49279824 </v>
    <v>       0.61206069       0.36379045       0.00424518 </v>
    <v>       0.61458396       0.38961841       0.47131852 </v>
    <v>       0.61421753       0.86409248       0.00406875 </v>
    <v>       0.63628266       0.88325491       0.50301240 </v>
    <v>       0.38384931       0.13787294       0.00365411 </v>
    <v>       0.37043575       0.12935736       0.48848335 </v>
    <v>       0.38789465       0.63313687       0.99943525 </v>
    <v>       0.38638922       0.61786914       0.47625163 </v>
    <v>       0.89217529       0.12757771       0.98510964 </v>
    <v>       0.88256076       0.12521981       0.49282745 </v>
    <v>       0.88619118       0.63632881       0.00166221 </v>
    <v>       0.87809158       0.63289454       0.50160116 </v>
    <v>       0.00640447       0.00606708       0.12670970 </v>
    <v>       0.00861064       0.00224134       0.62225446 </v>
    <v>       0.01060887       0.50022485       0.12648470 </v>
    <v>       0.99253362       0.49005737       0.63048663 </v>
    <v>       0.49650787       0.00368158       0.12734038 </v>
    <v>       0.49279923       0.00205884       0.62541431 </v>
    <v>       0.48829291       0.49130474       0.12434877 </v>
    <v>       0.48338171       0.48566985       0.62267974 </v>
    <v>       0.98793466       0.49808501       0.37506153 </v>
    <v>       0.98418874       0.48726061       0.87303023 </v>
    <v>       0.51256731       0.00299342       0.37510406 </v>
    <v>       0.49566415       0.99747225       0.87766402 </v>
    <v>       0.51061925       0.49529982       0.87411231 </v>
    <v>       0.25537716       0.25436113       0.87754944 </v>
    <v>       0.24529689       0.74969386       0.37260082 </v>
    <v>       0.25741765       0.74842334       0.87338705 </v>
    <v>       0.75103440       0.24434017       0.36988246 </v>
    <v>       0.76096829       0.26735310       0.87481977 </v>
    <v>       0.74219519       0.74411139       0.37571624 </v>
    <v>       0.74144341       0.74510430       0.87777865 </v>
    <v>       0.24223233       0.24481375       0.12831612 </v>
    <v>       0.23745487       0.23613236       0.62323816 </v>
    <v>       0.24092528       0.75033174       0.12639072 </v>
    <v>       0.25868974       0.74331192       0.62344235 </v>
    <v>       0.75565013       0.23736547       0.12570793 </v>
    <v>       0.75839467       0.75771558       0.12773311 </v>
    <v>       0.77754170       0.77300035       0.62622018 </v>
   </varray>
  </structure>
  <varray name="forces" >
   <v>       0.00521877       0.00805237      -0.00516575 </v>
   <v>      -0.00296265       0.00289993      -0.00893462 </v>
   <v>       0.00160046      -0.00304487       0.00168387 </v>
   <v>       0.00137085       0.00175832      -0.00572181 </v>
   <v>       0.00050675      -0.01917700      -0.00843702 </v>
   <v>       0.01430462       0.00152072       0.00022783 </v>
   <v>       0.00815324       0.00146811      -0.00267863 </v>
   <v>       0.00490885       0.00922643       0.00094312 </v>
   <v>       0.00459306       0.00001123      -0.00015551 </v>
   <v>       0.00419485       0.01152951       0.00948752 </v>
   <v>       0.00550245       0.00133627      -0.00653728 </v>
   <v>      -0.00303932       0.00148815      -0.00602310 </v>
   <v>       0.01016680      -0.01647576       0.00731697 </v>
   <v>      -0.00008656      -0.00228006      -0.00772935 </v>
   <v>      -0.00179934      -0.00193391      -0.00207542 </v>
   <v>      -0.00899125      -0.00072275       0.00301817 </v>
   <v>       0.00334745       0.00176644      -0.00240439 </v>
   <v>       0.00192255       0.00957654      -0.01081771 </v>
   <v>      -0.00234735       0.00310880      -0.00242404 </v>
   <v>      -0.00571747      -0.00125132       0.00522811 </v>
   <v>      -0.00153780       0.00280344      -0.00154151 </v>
   <v>       0.00002121       0.00359929      -0.01068083 </v>
   <v>       0.01024281      -0.00884862      -0.00168006 </v>
   <v>      -0.00490561      -0.00707354       0.00226510 </v>
   <v>      -0.00192004      -0.00101811       0.00449656 </v>
   <v>      -0.00809891      -0.00270367      -0.00094166 </v>
   <v>      -0.00460162       0.00085118      -0.00274553 </v>
   <v>      -0.00267589       0.00542673       0.00323729 </v>
   <v>       0.00512480      -0.01325021       0.00311968 </v>
   <v>      -0.00097112       0.01011087       0.00866298 </v>
   <v>       0.00249941      -0.01395324       0.00689134 </v>
   <v>       0.02077420      -0.00757123      -0.00569966 </v>
   <v>      -0.01760715       0.01389659      -0.01464344 </v>
   <v>       0.01764936      -0.01065612       0.01338297 </v>
   <v>      -0.00368093      -0.01048686       0.00055083 </v>
   <v>       0.02515399       0.01538845       0.00361638 </v>
   <v>      -0.01746891      -0.00198407      -0.01884570 </v>
   <v>       0.00119989       0.00716922       0.00175517 </v>
   <v>      -0.00644772      -0.01041779      -0.00158476 </v>
   <v>      -0.01951475      -0.00879366       0.02347997 </v>
   <v>       0.00625225       0.00044754       0.01187738 </v>
   <v>      -0.00817459       0.00080168       0.00069900 </v>
   <v>      -0.00063484      -0.01021011       0.00412494 </v>
   <v>      -0.00468459       0.00911938       0.00578065 </v>
   <v>      -0.02394376      -0.00801572      -0.00842746 </v>
   <v>       0.00228317       0.01296585       0.01827638 </v>
   <v>       0.00634323       0.00460184      -0.01242088 </v>
   <v>      -0.00159470      -0.00445671       0.00415078 </v>
   <v>      -0.00370281       0.00332804      -0.00123297 </v>
   <v>       0.00454789      -0.02341734       0.02838138 </v>
   <v>       0.00943440       0.01799763      -0.00414060 </v>
   <v>       0.01150819       0.00924122      -0.01883362 </v>
   <v>      -0.00596526      -0.00742992      -0.00684794 </v>
   <v>      -0.00330295       0.00296780      -0.01552125 </v>
   <v>      -0.00050728      -0.00487982       0.00212925 </v>
   <v>       0.00111282       0.01132759      -0.01723357 </v>
   <v>       0.00538964      -0.00622132       0.00185849 </v>
   <v>      -0.00251518       0.00421320       0.00217317 </v>
   <v>       0.00680695       0.00272976       0.00817512 </v>
   <v>      -0.02398633       0.00321488      -0.00451724 </v>
   <v>       0.00414774       0.00639953       0.02411898 </v>
   <v>      -0.00294884      -0.01489021       0.00208178 </v>
   <v>      -0.00106617       0.00390234       0.00248110 </v>
   <v>      -0.00395027       0.01620916       0.00530159 </v>
   <v>      -0.00115823       0.00295130      -0.02008223 </v>
   <v>      -0.00752109       0.00675477       0.00585240 </v>
   <v>      -0.00103043      -0.01183517       0.00189545 </v>
   <v>      -0.00863310       0.00186640      -0.00827428 </v>
   <v>       0.00656166       0.00518521       0.00543846 </v>
   <v>      -0.00415465       0.00692386      -0.00434187 </v>
   <v>       0.00803409      -0.00777074       0.00844289 </v>
   <v>       0.00213279       0.00014904      -0.00604624 </v>
   <v>      -0.00406749       0.00498749       0.01020245 </v>
   <v>      -0.00916696      -0.01291385       0.00451327 </v>
   <v>       0.00950440      -0.01104654       0.01083453 </v>
   <v>      -0.00800776      -0.00726171       0.00045541 </v>
   <v>      -0.00359484      -0.01513360       0.00270913 </v>
   <v>       0.00210874       0.01033611      -0.01408203 </v>
   <v>       0.00375574      -0.00983855       0.00685073 </v>
   <v>       0.01600016      -0.01516023       0.00593087 </v>
   <v>       0.00752851      -0.00799528      -0.00533142 </v>
   <v>      -0.00584117      -0.00131466      -0.00639970 </v>
   <v>      -0.02208058       0.03191114       0.00008989 </v>
   <v>      -0.01441749       0.02242090       0.01085294 </v>
   <v>      -0.01591256       0.01136136      -0.00754674 </v>
   <v>      -0.00671381      -0.00091759       0.00519502 </v>
   <v>       0.00549549       0.00938339       0.00589587 </v>
   <v>      -0.01514358       0.01999335      -0.00636344 </v>
   <v>       0.00245189       0.00254682      -0.00602662 </v>
   <v>       0.01529511      -0.00253152      -0.00787521 </v>
   <v>       0.00497517      -0.00317070      -0.00745705 </v>
   <v>       0.00376715      -0.02237994       0.00645128 </v>
   <v>       0.01797621      -0.00373377      -0.00942082 </v>
   <v>       0.00767275      -0.00340592       0.00462236 </v>
   <v>       0.01229003       0.00011436      -0.00408802 </v>
   <v>      -0.00058847      -0.00189452      -0.02535987 </v>
   <v>      -0.00038762       0.00606889       0.01380205 </v>
   <v>      -0.00747124      -0.00580178       0.00054998 </v>
   <v>      -0.00783853      -0.01481829      -0.01439311 </v>
   <v>       0.00089831       0.00437899      -0.00404283 </v>
   <v>      -0.00622794       0.00389726       0.00219519 </v>
   <v>      -0.00928210      -0.01283059       0.00673901 </v>
   <v>      -0.00986430      -0.00145207       0.00359533 </v>
   <v>       0.00330498       0.00561197       0.01040814 </v>
   <v>      -0.00401795       0.00294876      -0.00942294 </v>
   <v>       0.00814919      -0.00174773       0.00546915 </v>
   <v>       0.00563583      -0.00196407       0.00083460 </v>
   <v>      -0.00757282      -0.01111086       0.00861853 </v>
   <v>      -0.00706610       0.00415920       0.00096982 </v>
   <v>       0.00737996       0.01715153       0.00476102 </v>
   <v>       0.00762198       0.00740853       0.00154624 </v>
   <v>       0.00779788      -0.00401068       0.00449449 </v>
   <v>      -0.00425898       0.00916212      -0.00249045 </v>
   <v>       0.00656143      -0.00584283      -0.00024765 </v>
   <v>       0.01506929      -0.00314616       0.00794533 </v>
   <v>       0.00592262      -0.01749091      -0.00679269 </v>
   <v>      -0.00245097       0.00295549       0.00092504 </v>
   <v>      -0.00563979      -0.00312589      -0.00031429 </v>
   <v>       0.00703952      -0.00285946      -0.00582871 </v>
   <v>       0.00425404      -0.01362024       0.00637403 </v>
   <v>       0.01247778      -0.01604691       0.00035600 </v>
   <v>       0.00185126      -0.00369617       0.01090776 </v>
   <v>      -0.00365312       0.00988447      -0.01846164 </v>
   <v>      -0.01121495      -0.00377538      -0.00059359 </v>
   <v>      -0.00611010       0.01588553      -0.01075700 </v>
   <v>      -0.00214654       0.00132044       0.00116373 </v>
   <v>       0.00230066      -0.00252121       0.00087264 </v>
   <v>      -0.00855722      -0.00345548      -0.00357323 </v>
   <v>      -0.01586665       0.01685069      -0.01242415 </v>
   <v>      -0.01198434       0.00289303       0.00054876 </v>
   <v>      -0.00493885       0.00214350      -0.01412757 </v>
   <v>      -0.00395403      -0.00617272      -0.00754146 </v>
   <v>       0.00222997      -0.00192962       0.00898935 </v>
   <v>       0.00784705      -0.01141743       0.01006788 </v>
   <v>       0.00461541       0.00067201      -0.00411536 </v>
   <v>       0.00606665      -0.00753139      -0.00139808 </v>
   <v>       0.00708890       0.00404443      -0.00230910 </v>
   <v>      -0.00052390       0.00881880       0.01588292 </v>
   <v>      -0.00074743      -0.00008257       0.00833948 </v>
   <v>       0.00731208       0.00470143       0.00653085 </v>
   <v>      -0.00605407      -0.00982483       0.00170195 </v>
   <v>       0.00445569       0.00263405       0.02006587 </v>
   <v>      -0.00890721      -0.00016761      -0.01708870 </v>
   <v>       0.00060863       0.00052493      -0.00453451 </v>
   <v>       0.00174561       0.00138841      -0.00896354 </v>
   <v>      -0.00492765       0.00051449       0.01426423 </v>
   <v>      -0.00181716       0.00540103       0.00033726 </v>
   <v>       0.01527208       0.01195055      -0.00240735 </v>
   <v>       0.00046097       0.00032671      -0.00720980 </v>
   <v>       0.00396099      -0.00029567      -0.00708545 </v>
   <v>       0.00603732      -0.00762534       0.02043385 </v>
   <v>       0.00035163       0.00250070       0.01215254 </v>
   <v>      -0.00143102       0.00516547      -0.00129684 </v>
   <v>      -0.00185352       0.01312723      -0.00629096 </v>
  </varray>
  <varray name="stress" >
   <v>      -0.18780455      -0.03816775       0.04657721 </v>
   <v>      -0.03816804      -0.13348680      -0.00864981 </v>
   <v>       0.04657701      -0.00864994      -0.07027035 </v>
  </varray>
  <energy>
   <i name="e_fr_energy">  -1086.66466938 </i>
   <i name="e_wo_entrp">  -1086.66466938 </i>
   <i name="e_0_energy">     -0.00000000 </i>
  </energy>
  <time name="totalsc"> 1967.68 1970.02</time>
 </calculation>
 <calculation>
  <scstep>
   <time name="dav">  593.02  593.04</time>
   <time name="total">  600.12  600.22</time>
   <energy>
    <i name="alphaZ">   5611.19539194 </i>
    <i name="ewald"> -61560.06974148 </i>
    <i name="hartreedc"> -16984.83622480 </i>
    <i name="XCdc">   3073.87749674 </i>
    <i name="pawpsdc"> 113281.28474980 </i>
    <i name="pawaedc">-112333.04164416 </i>
    <i name="eentropy">     -0.00000000 </i>
    <i name="bandstr">  -7091.88664197 </i>
    <i name="atom">  74916.81196153 </i>
    <i name="e_fr_energy">  -1086.66465240 </i>
    <i name="e_wo_entrp">  -1086.66465240 </i>
    <i name="e_0_energy">  -1086.66465240 </i>
   </energy>
  </scstep>
  <scstep>
   <time name="diag">   65.09   65.09</time>
   <time name="diis">  104.73  104.73</time>
   <time name="orth">   33.51   33.50</time>
   <time name="total">  210.47  210.53</time>
   <energy>
    <i name="e_fr_energy">  -1086.66555759 </i>
    <i name="e_wo_entrp">  -1086.66555759 </i>
    <i name="e_0_energy">  -1086.66555759 </i>
   </energy>
  </scstep>
  <scstep>
   <time name="diag">   65.07   65.07</time>
   <time name="diis">   90.14   90.15</time>
   <time name="orth">   33.48   33.48</time>
   <time name="total">  195.86  195.98</time>
   <energy>
    <i name="e_fr_energy">  -1086.66556793 </i>
    <i name="e_wo_entrp">  -1086.66556793 </i>
    <i name="e_0_energy">  -1086.66556793 </i>
   </energy>
  </scstep>
  <scstep>
   <time name="diag">   65.14   65.14</time>
   <time name="diis">   65.76   65.77</time>
   <time name="orth">   33.46   33.46</time>
   <time name="total">  171.55  171.61</time>
   <energy>
    <i name="e_fr_energy">  -1086.66551262 </i>
    <i name="e_wo_entrp">  -1086.66551262 </i>
    <i name="e_0_energy">  -1086.66551262 </i>
   </energy>
  </scstep>
  <scstep>
   <time name="diag">   65.08   65.09</time>
   <time name="diis">   64.00   64.01</time>
   <time name="orth">   33.45   33.46</time>
   <time name="total">  169.71  169.75</time>
   <energy>
    <i name="e_fr_energy">  -1086.66550435 </i>
    <i name="e_wo_entrp">  -1086.66550435 </i>
    <i name="e_0_energy">  -1086.66550435 </i>
   </energy>
  </scstep>
  <scstep>
   <time name="diag">   65.04   65.05</time>
   <time name="diis">   63.14   63.14</time>
   <time name="orth">   33.47   33.47</time>
   <time name="total">  168.83  168.92</time>
   <energy>
    <i name="e_fr_energy">  -1086.66550813 </i>
    <i name="e_wo_entrp">  -1086.66550813 </i>
    <i name="e_0_energy">  -1086.66550813 </i>
   </energy>
  </scstep>
  <scstep>
   <time name="diag">   65.04   65.05</time>
   <time name="diis">   60.15   60.15</time>
   <time name="orth">   33.45   33.46</time>
   <time name="total">  165.79  165.92</time>
   <energy>
    <i name="e_fr_energy">  -1086.66551042 </i>
    <i name="e_wo_entrp">  -1086.66551042 </i>
    <i name="e_0_energy">  -1086.66551042 </i>
   </energy>
  </scstep>
  <scstep>
   <time name="diag">   64.97   64.97</time>
   <time name="diis">   58.15   58.15</time>
   <time name="orth">   33.49   33.49</time>
   <time name="total">  157.66  157.76</time>
   <energy>
    <i name="alphaZ">   5611.19539194 </i>
    <i name="ewald"> -61560.06974148 </i>
    <i name="hartreedc"> -16982.69069036 </i>
    <i name="XCdc">   3073.72430532 </i>
    <i name="pawpsdc"> 113313.62568481 </i>
    <i name="pawaedc">-112365.42036356 </i>
    <i name="eentropy">     -0.00000000 </i>
    <i name="bandstr">  -7093.84206057 </i>
    <i name="atom">  74916.81196153 </i>
    <i name="e_fr_energy">  -1086.66551236 </i>
    <i name="e_wo_entrp">  -1086.66551236 </i>
    <i name="e_0_energy">  -1086.66551236 </i>
   </energy>
  </scstep>
  <structure>
   <crystal>
    <varray name="basis" >
     <v>      11.22063066      -0.05655143      -0.00316018 </v>
     <v>      -0.05652044      11.21529407      -0.00373627 </v>
     <v>      -0.00459824      -0.00559619      15.96637014 </v>
    </varray>
    <i name="volume">   2009.19925689 </i>
    <varray name="rec_basis" >
     <v>       0.08912382       0.00044916       0.00002582 </v>
     <v>       0.00044940       0.08916623       0.00003138 </v>
     <v>       0.00001775       0.00002095       0.06263166 </v>
    </varray>
   </crystal>
   <varray name="positions" >
    <v>       0.98894491       0.26141895       0.12084036 </v>
    <v>       0.00123329       0.25922073       0.61866538 </v>
    <v>       0.00237357       0.73836642       0.12620943 </v>
    <v>       0.01339603       0.73686130       0.62106616 </v>
    <v>       0.50714500       0.24767206       0.12101969 </v>
    <v>       0.48817756       0.23857135       0.63202771 </v>
    <v>       0.49611152       0.74865285       0.12331979 </v>
    <v>       0.50179129       0.76216152       0.62406288 </v>
    <v>       0.98862863       0.25969953       0.37572511 </v>
    <v>       0.99754121       0.25816496       0.87658327 </v>
    <v>       0.00516069       0.73856083       0.38058975 </v>
    <v>       0.00356813       0.73923398       0.87294339 </v>
    <v>       0.50715918       0.24177630       0.37680712 </v>
    <v>       0.49622474       0.24815162       0.87925362 </v>
    <v>       0.50114996       0.76194342       0.37927786 </v>
    <v>       0.49900007       0.74777857       0.87219969 </v>
    <v>       0.26047741       0.99076936       0.12476641 </v>
    <v>       0.26552998       0.98125991       0.62338185 </v>
    <v>       0.24831081       0.50899910       0.11833250 </v>
    <v>       0.24475698       0.50387701       0.62997772 </v>
    <v>       0.73762651       0.00076547       0.12358916 </v>
    <v>       0.74100551       0.00868794       0.62820977 </v>
    <v>       0.74832036       0.49845166       0.12558911 </v>
    <v>       0.75820456       0.52196091       0.62320037 </v>
    <v>       0.26308815       0.98568092       0.37947558 </v>
    <v>       0.25775401       0.98981501       0.87373212 </v>
    <v>       0.23947708       0.50796106       0.37887899 </v>
    <v>       0.25696965       0.50209692       0.87312344 </v>
    <v>       0.74495409       0.99977268       0.37569769 </v>
    <v>       0.73614758       0.99737673       0.87863749 </v>
    <v>       0.75730881       0.50523964       0.37686552 </v>
    <v>       0.74694864       0.50321965       0.87868793 </v>
    <v>       0.00032721       0.99953276       0.00783048 </v>
    <v>       0.00405803       0.00151570       0.50611820 </v>
    <v>       0.99855428       0.49860042       0.99829596 </v>
    <v>       0.49772515       0.99887750       0.99940899 </v>
    <v>       0.50004959       0.49872296       0.99846313 </v>
    <v>       0.49795438       0.49925690       0.50905574 </v>
    <v>       0.24850677       0.24899710       0.99739373 </v>
    <v>       0.24706738       0.24618324       0.50656038 </v>
    <v>       0.75012501       0.75007321       0.00105798 </v>
    <v>       0.75485916       0.75744557       0.50036439 </v>
    <v>       0.24857512       0.24887516       0.24441248 </v>
    <v>       0.24569554       0.24411190       0.75603658 </v>
    <v>       0.25175008       0.74569492       0.25186683 </v>
    <v>       0.26001003       0.74534243       0.75044117 </v>
    <v>       0.74678442       0.25190083       0.24744760 </v>
    <v>       0.74712131       0.74800299       0.25212206 </v>
    <v>       0.75141587       0.75613801       0.75111461 </v>
    <v>       0.00261439       0.00069605       0.24527411 </v>
    <v>       0.99922112       0.49956759       0.25166144 </v>
    <v>       0.50101878       0.00046884       0.25198133 </v>
    <v>       0.99786380       0.49824949       0.50254235 </v>
    <v>       0.50317876       0.00303851       0.50312182 </v>
    <v>       0.25018864       0.74864628       0.99689413 </v>
    <v>       0.25479460       0.74621739       0.49785669 </v>
    <v>       0.74904714       0.25078513       0.99872759 </v>
    <v>       0.74920901       0.25256719       0.48743993 </v>
    <v>       0.72937806       0.25038037       0.76009948 </v>
    <v>       0.01380133       0.99093993       0.74110607 </v>
    <v>       0.00892154       0.50850998       0.75088252 </v>
    <v>       0.49738449       0.99893406       0.75052326 </v>
    <v>       0.49533120       0.49731408       0.24021408 </v>
    <v>       0.50521861       0.49838801       0.74894980 </v>
    <v>       0.11946717       0.13101840       0.27813345 </v>
    <v>       0.10415621       0.12203738       0.77774870 </v>
    <v>       0.11455991       0.63153763       0.25309098 </v>
    <v>       0.12653524       0.62668672       0.75104002 </v>
    <v>       0.61640932       0.13320109       0.24664071 </v>
    <v>       0.60301459       0.14102687       0.75191195 </v>
    <v>       0.61325274       0.63114501       0.25398704 </v>
    <v>       0.62135274       0.64194804       0.73833980 </v>
    <v>       0.37577735       0.36232226       0.27517279 </v>
    <v>       0.37907861       0.35775020       0.74984721 </v>
    <v>       0.38508452       0.86582781       0.25082467 </v>
    <v>       0.38819860       0.86102070       0.74925444 </v>
    <v>       0.88029435       0.36828968       0.24480062 </v>
    <v>       0.89042261       0.87232333       0.26670011 </v>
    <v>       0.88577625       0.89578287       0.77837788 </v>
    <v>       0.36275142       0.11760907       0.25891413 </v>
    <v>       0.35142443       0.10955418       0.74918800 </v>
    <v>       0.36546747       0.61237885       0.25446436 </v>
    <v>       0.37128255       0.61073001       0.75120618 </v>
    <v>       0.87483026       0.11446265       0.25808850 </v>
    <v>       0.85495836       0.17542544       0.70989080 </v>
    <v>       0.86682381       0.61806936       0.24718510 </v>
    <v>       0.87155700       0.62451723       0.75202347 </v>
    <v>       0.13108157       0.37568748       0.26104356 </v>
    <v>       0.11956622       0.36830395       0.75033385 </v>
    <v>       0.13242230       0.88857174       0.25591515 </v>
    <v>       0.13586585       0.87535568       0.74912906 </v>
    <v>       0.62901767       0.38271414       0.25254524 </v>
    <v>       0.65405530       0.39486215       0.73104700 </v>
    <v>       0.63598849       0.88476675       0.24849943 </v>
    <v>       0.63939291       0.88869967       0.74985257 </v>
    <v>       0.36013312       0.38525026       0.00052144 </v>
    <v>       0.36617322       0.37232285       0.48247558 </v>
    <v>       0.36269036       0.88669342       0.00475040 </v>
    <v>       0.38076883       0.87206249       0.49757257 </v>
    <v>       0.86567583       0.38583896       0.01047605 </v>
    <v>       0.86030362       0.37538979       0.51351029 </v>
    <v>       0.86435273       0.88894337       0.99541188 </v>
    <v>       0.88441919       0.88333195       0.47624020 </v>
    <v>       0.13511123       0.10982161       0.99127258 </v>
    <v>       0.12673957       0.12180421       0.46992429 </v>
    <v>       0.13338622       0.61116622       0.99348374 </v>
    <v>       0.12929527       0.61675149       0.50425669 </v>
    <v>       0.63364594       0.11385143       0.99872244 </v>
    <v>       0.62854331       0.14374641       0.52081875 </v>
    <v>       0.63708242       0.61339103       0.00855921 </v>
    <v>       0.62593979       0.62999583       0.51057913 </v>
    <v>       0.11217738       0.35998233       0.00084306 </v>
    <v>       0.12119049       0.36271428       0.48939039 </v>
    <v>       0.10617862       0.86908973       0.98503670 </v>
    <v>       0.12362631       0.87758567       0.49282226 </v>
    <v>       0.61208576       0.36371533       0.00422464 </v>
    <v>       0.61457349       0.38963107       0.47132131 </v>
    <v>       0.61419321       0.86407891       0.00406779 </v>
    <v>       0.63631285       0.88324276       0.50299480 </v>
    <v>       0.38386732       0.13781446       0.00367336 </v>
    <v>       0.37048904       0.12928861       0.48848442 </v>
    <v>       0.38790254       0.63312102       0.99946820 </v>
    <v>       0.38637371       0.61791155       0.47619585 </v>
    <v>       0.89212699       0.12756122       0.98510783 </v>
    <v>       0.88253482       0.12528799       0.49279496 </v>
    <v>       0.88618198       0.63633445       0.00166572 </v>
    <v>       0.87810142       0.63288374       0.50160380 </v>
    <v>       0.00636760       0.00605203       0.12669889 </v>
    <v>       0.00854277       0.00231346       0.62221693 </v>
    <v>       0.01055741       0.50023704       0.12648635 </v>
    <v>       0.99251242       0.49006646       0.63044394 </v>
    <v>       0.49649072       0.00365494       0.12731759 </v>
    <v>       0.49280879       0.00205060       0.62544147 </v>
    <v>       0.48832641       0.49125582       0.12437918 </v>
    <v>       0.48340157       0.48567284       0.62266731 </v>
    <v>       0.98796057       0.49805274       0.37505730 </v>
    <v>       0.98421931       0.48727815       0.87302326 </v>
    <v>       0.51256527       0.00303136       0.37515206 </v>
    <v>       0.49566095       0.99747189       0.87768921 </v>
    <v>       0.51065080       0.49532021       0.87413206 </v>
    <v>       0.25535092       0.25431874       0.87755456 </v>
    <v>       0.24531613       0.74970532       0.37266146 </v>
    <v>       0.25737933       0.74842240       0.87333541 </v>
    <v>       0.75103702       0.24434244       0.36986876 </v>
    <v>       0.76097581       0.26735910       0.87479269 </v>
    <v>       0.74217404       0.74411352       0.37575934 </v>
    <v>       0.74143572       0.74512749       0.87777968 </v>
    <v>       0.24229824       0.24486548       0.12830887 </v>
    <v>       0.23745685       0.23613376       0.62321637 </v>
    <v>       0.24094229       0.75033054       0.12636931 </v>
    <v>       0.25871556       0.74327928       0.62350408 </v>
    <v>       0.75565171       0.23737625       0.12574465 </v>
    <v>       0.75838863       0.75773776       0.12772919 </v>
    <v>       0.77753401       0.77305676       0.62620119 </v>
   </varray>
  </structure>
  <varray name="forces" >
   <v>       0.00582860       0.00366968       0.00618785 </v>
   <v>      -0.01002859       0.00703665      -0.00892815 </v>
   <v>      -0.00100355       0.00144318      -0.00678380 </v>
   <v>       0.00260088      -0.00720574      -0.00425125 </v>
   <v>       0.00029786      -0.01190846      -0.00430762 </v>
   <v>       0.01359755       0.00052789      -0.00162740 </v>
   <v>       0.00609960       0.00144137      -0.00187297 </v>
   <v>      -0.00032120       0.00864609      -0.00248655 </v>
   <v>      -0.00294970       0.00097227      -0.00229717 </v>
   <v>       0.00551708       0.00830957       0.00337976 </v>
   <v>       0.00006026      -0.00344748       0.00432961 </v>
   <v>      -0.00343016       0.00387082      -0.00541929 </v>
   <v>       0.00956158      -0.01388202       0.00768052 </v>
   <v>      -0.00054008      -0.00398833      -0.01032609 </v>
   <v>      -0.00385395       0.00015207      -0.00301788 </v>
   <v>      -0.00518784       0.00444011       0.00529818 </v>
   <v>       0.00266609      -0.00119248      -0.00658946 </v>
   <v>       0.00670410       0.00400935      -0.00691887 </v>
   <v>       0.00229179      -0.00145586       0.00003417 </v>
   <v>      -0.00717671       0.00721093      -0.00052543 </v>
   <v>       0.00470980       0.00046709       0.00453482 </v>
   <v>      -0.00348621       0.00461831      -0.01226278 </v>
   <v>       0.00445934      -0.00863229      -0.00016602 </v>
   <v>      -0.00039521      -0.00459070      -0.00098954 </v>
   <v>       0.00847925      -0.00147309       0.00368796 </v>
   <v>      -0.00493711      -0.00212093      -0.00059731 </v>
   <v>      -0.00019645      -0.00179346       0.00483648 </v>
   <v>      -0.00332184       0.00405584      -0.00118202 </v>
   <v>       0.00067075      -0.00408684       0.00341296 </v>
   <v>      -0.00202509       0.00257566       0.00215302 </v>
   <v>       0.00482172      -0.01457042       0.00432697 </v>
   <v>       0.01688088      -0.00205400      -0.00634865 </v>
   <v>       0.01849944      -0.02455090      -0.00180138 </v>
   <v>      -0.02053902       0.00933602      -0.02098474 </v>
   <v>      -0.00211565       0.01830100       0.00159052 </v>
   <v>      -0.00730362      -0.01693531      -0.00368199 </v>
   <v>       0.00376929      -0.00095574       0.00667305 </v>
   <v>      -0.00763339       0.00992975      -0.01134463 </v>
   <v>       0.00745754      -0.01354572       0.00103699 </v>
   <v>       0.00699197       0.00188203      -0.01145369 </v>
   <v>      -0.00563709      -0.00521780      -0.00571157 </v>
   <v>       0.01421247      -0.01948654       0.00299040 </v>
   <v>       0.00099787       0.01230035       0.00313403 </v>
   <v>       0.00050563      -0.00675995       0.00145759 </v>
   <v>       0.02213622       0.01103930       0.00499273 </v>
   <v>      -0.01490096       0.00912194      -0.01173101 </v>
   <v>       0.01158796       0.00322757       0.02097804 </v>
   <v>      -0.00523727      -0.00484652       0.00460145 </v>
   <v>       0.00313563       0.00302112       0.00021138 </v>
   <v>      -0.01332175       0.02161259      -0.00995598 </v>
   <v>      -0.02252734      -0.03419645       0.01002658 </v>
   <v>       0.00177148      -0.00696722       0.01706221 </v>
   <v>      -0.00358961       0.00610894       0.00114606 </v>
   <v>      -0.00141959       0.00034434      -0.00797368 </v>
   <v>      -0.00178230       0.00860669      -0.00103646 </v>
   <v>       0.00364077      -0.00463840       0.00346366 </v>
   <v>      -0.00197466       0.00143576       0.00220424 </v>
   <v>      -0.00101759      -0.00185505      -0.00698197 </v>
   <v>      -0.00649508       0.00020579      -0.00427272 </v>
   <v>      -0.00251219       0.00399268      -0.00270406 </v>
   <v>      -0.00195512       0.00601521      -0.01797576 </v>
   <v>      -0.00137085      -0.00106279      -0.00228269 </v>
   <v>       0.00270516      -0.00612475       0.00479589 </v>
   <v>      -0.00265563       0.01488120      -0.00476493 </v>
   <v>       0.00303876       0.00156454      -0.01418317 </v>
   <v>      -0.01436595      -0.00026306       0.00343869 </v>
   <v>       0.00318281       0.00293878       0.00028183 </v>
   <v>      -0.00779173       0.00080041      -0.00168225 </v>
   <v>      -0.00687110      -0.00838782      -0.00064327 </v>
   <v>      -0.00385890       0.00393520       0.00000500 </v>
   <v>       0.00662435      -0.00610463       0.00638684 </v>
   <v>      -0.00589182      -0.00544860      -0.00483337 </v>
   <v>      -0.01073290      -0.00515330       0.00712530 </v>
   <v>      -0.00068745       0.00107630       0.00583368 </v>
   <v>       0.00404579      -0.01149046       0.00685491 </v>
   <v>       0.00891553       0.00678708       0.00508312 </v>
   <v>       0.01269556       0.00547864      -0.00209206 </v>
   <v>      -0.00122086      -0.00424566      -0.00282052 </v>
[...]
       <r>   -16.6186     0.0000    32.0000 </r>
       <r>   -16.4657     0.0000    32.0000 </r>
       <r>   -16.3127     0.0000    32.0000 </r>
       <r>   -16.1597     0.0000    32.0000 </r>
       <r>   -16.0067     0.0000    32.0000 </r>
       <r>   -15.8537     0.0000    32.0000 </r>
       <r>   -15.7007     0.0000    32.0000 </r>
       <r>   -15.5477     0.1190    32.0182 </r>
       <r>   -15.3948     6.3344    32.9873 </r>
       <r>   -15.2418     0.1286    33.0070 </r>
       <r>   -15.0888    10.7824    34.6565 </r>
       <r>   -14.9358    36.3566    40.2186 </r>
       <r>   -14.7828    45.2740    47.1449 </r>
       <r>   -14.6298    41.8340    53.5449 </r>
       <r>   -14.4768    31.0504    58.2952 </r>
       <r>   -14.3238    38.1089    64.1253 </r>
       <r>   -14.1709    59.2933    73.1964 </r>
       <r>   -14.0179    99.5050    88.4193 </r>
       <r>   -13.8649    93.4655   102.7183 </r>
       <r>   -13.7119    69.7069   113.3825 </r>
       <r>   -13.5589    42.1546   119.8315 </r>
       <r>   -13.4059    12.8851   121.8028 </r>
       <r>   -13.2529     1.2891   122.0000 </r>
       <r>   -13.1000     0.0000   122.0000 </r>
       <r>   -12.9470     0.0000   122.0000 </r>
       <r>   -12.7940     3.0379   122.4648 </r>
       <r>   -12.6410    60.2573   131.6833 </r>
       <r>   -12.4880   116.7365   149.5424 </r>
       <r>   -12.3350   121.4002   168.1150 </r>
       <r>   -12.1820   115.7877   185.8289 </r>
       <r>   -12.0291    97.9420   200.8127 </r>
       <r>   -11.8761    72.3995   211.8888 </r>
       <r>   -11.7231    32.4093   216.8470 </r>
       <r>   -11.5701     7.4806   217.9914 </r>
       <r>   -11.4171     0.0559   218.0000 </r>
       <r>   -11.2641     0.0000   218.0000 </r>
       <r>   -11.1111     0.0000   218.0000 </r>
       <r>   -10.9581     0.0000   218.0000 </r>
       <r>   -10.8052     0.0000   218.0000 </r>
       <r>   -10.6522     0.0000   218.0000 </r>
       <r>   -10.4992     0.0000   218.0000 </r>
       <r>   -10.3462     0.0000   218.0000 </r>
       <r>   -10.1932     0.0000   218.0000 </r>
       <r>   -10.0402     0.0000   218.0000 </r>
       <r>    -9.8872     0.0000   218.0000 </r>
       <r>    -9.7343     0.0000   218.0000 </r>
       <r>    -9.5813     0.0000   218.0000 </r>
       <r>    -9.4283     0.0000   218.0000 </r>
       <r>    -9.2753     0.0000   218.0000 </r>
       <r>    -9.1223     0.0000   218.0000 </r>
       <r>    -8.9693     0.0000   218.0000 </r>
       <r>    -8.8163     0.0000   218.0000 </r>
       <r>    -8.6634     0.0000   218.0000 </r>
       <r>    -8.5104     0.0000   218.0000 </r>
       <r>    -8.3574     0.0000   218.0000 </r>
       <r>    -8.2044     0.0000   218.0000 </r>
       <r>    -8.0514     0.0000   218.0000 </r>
       <r>    -7.8984     0.0000   218.0000 </r>
       <r>    -7.7454     0.0000   218.0000 </r>
       <r>    -7.5924     0.0000   218.0000 </r>
       <r>    -7.4395     0.0000   218.0000 </r>
       <r>    -7.2865     0.0000   218.0000 </r>
       <r>    -7.1335     0.0000   218.0000 </r>
       <r>    -6.9805     0.0000   218.0000 </r>
       <r>    -6.8275     0.0000   218.0000 </r>
       <r>    -6.6745     0.0000   218.0000 </r>
       <r>    -6.5215     0.0000   218.0000 </r>
       <r>    -6.3686     0.0000   218.0000 </r>
       <r>    -6.2156     0.0000   218.0000 </r>
       <r>    -6.0626     0.0000   218.0000 </r>
       <r>    -5.9096     0.0000   218.0000 </r>
       <r>    -5.7566     0.0000   218.0000 </r>
       <r>    -5.6036     0.0000   218.0000 </r>
       <r>    -5.4506     0.0000   218.0000 </r>
       <r>    -5.2977     0.0000   218.0000 </r>
       <r>    -5.1447     0.0000   218.0000 </r>
       <r>    -4.9917     0.0000   218.0000 </r>
       <r>    -4.8387     0.0000   218.0000 </r>
       <r>    -4.6857     0.0000   218.0000 </r>
       <r>    -4.5327     0.0000   218.0000 </r>
       <r>    -4.3797     0.0000   218.0000 </r>
       <r>    -4.2267     0.0000   218.0000 </r>
       <r>    -4.0738     0.0000   218.0000 </r>
       <r>    -3.9208     0.0000   218.0000 </r>
       <r>    -3.7678     0.0000   218.0000 </r>
       <r>    -3.6148     0.0000   218.0000 </r>
       <r>    -3.4618     0.0000   218.0000 </r>
       <r>    -3.3088     0.0000   218.0000 </r>
       <r>    -3.1558     0.0000   218.0000 </r>
       <r>    -3.0029     0.0000   218.0000 </r>
       <r>    -2.8499     0.0000   218.0000 </r>
       <r>    -2.6969     0.0000   218.0000 </r>
       <r>    -2.5439     0.0007   218.0001 </r>
       <r>    -2.3909     4.7194   218.7221 </r>
       <r>    -2.2379    12.2863   220.6018 </r>
       <r>    -2.0849    33.7409   225.7636 </r>
       <r>    -1.9320    30.2664   230.3940 </r>
       <r>    -1.7790    34.5179   235.6748 </r>
       <r>    -1.6260    41.4461   242.0154 </r>
       <r>    -1.4730    36.7637   247.6398 </r>
       <r>    -1.3200    62.2677   257.1659 </r>
       <r>    -1.1670    68.3446   267.6217 </r>
       <r>    -1.0140    78.1590   279.5789 </r>
       <r>    -0.8610    76.6076   291.2989 </r>
       <r>    -0.7081    79.0308   303.3895 </r>
       <r>    -0.5551    94.3709   317.8270 </r>
       <r>    -0.4021    96.4110   332.5765 </r>
       <r>    -0.2491    73.0432   343.7511 </r>
       <r>    -0.0961    55.1065   352.1817 </r>
       <r>     0.0569    47.0225   359.3755 </r>
       <r>     0.2099    57.6035   368.1880 </r>
       <r>     0.3628    55.3774   376.6600 </r>
       <r>     0.5158    53.1778   384.7955 </r>
       <r>     0.6688    55.8929   393.3463 </r>
       <r>     0.8218    51.8679   401.2814 </r>
       <r>     0.9748    52.7663   409.3539 </r>
       <r>     1.1278    61.9871   418.8371 </r>
       <r>     1.2808    72.2182   429.8855 </r>
       <r>     1.4337    77.0979   441.6804 </r>
       <r>     1.5867    83.2295   454.4134 </r>
       <r>     1.7397    68.4383   464.8835 </r>
       <r>     1.8927    65.5415   474.9105 </r>
       <r>     2.0457    36.9235   480.5593 </r>
       <r>     2.1987    33.5603   485.6936 </r>
       <r>     2.3517    14.3333   487.8864 </r>
       <r>     2.5047     0.7427   488.0000 </r>
       <r>     2.6576     0.0000   488.0000 </r>
       <r>     2.8106     0.0000   488.0000 </r>
       <r>     2.9636     0.0000   488.0000 </r>
       <r>     3.1166     0.0000   488.0000 </r>
       <r>     3.2696     0.0000   488.0000 </r>
       <r>     3.4226     0.0000   488.0000 </r>
       <r>     3.5756     0.0000   488.0000 </r>
       <r>     3.7285     0.0000   488.0000 </r>
       <r>     3.8815     0.0000   488.0000 </r>
       <r>     4.0345     0.0000   488.0000 </r>
       <r>     4.1875     0.0000   488.0000 </r>
       <r>     4.3405     0.0603   488.0092 </r>
       <r>     4.4935     9.8029   489.5089 </r>
       <r>     4.6465    37.4630   495.2403 </r>
       <r>     4.7994    47.2508   502.4690 </r>
       <r>     4.9524    48.9909   509.9639 </r>
       <r>     5.1054    54.5449   518.3086 </r>
       <r>     5.2584    71.2364   529.2068 </r>
       <r>     5.4114    73.1415   540.3964 </r>
       <r>     5.5644    60.9453   549.7202 </r>
       <r>     5.7174    67.0247   559.9741 </r>
       <r>     5.8704    63.7996   569.7345 </r>
       <r>     6.0233    93.8869   584.0980 </r>
       <r>     6.1763    82.9471   596.7877 </r>
       <r>     6.3293    64.0753   606.5904 </r>
       <r>     6.4823    36.6580   612.1986 </r>
       <r>     6.6353    16.7280   614.7577 </r>
       <r>     6.7883    14.4826   616.9734 </r>
       <r>     6.9413    21.4651   620.2572 </r>
       <r>     7.0942    14.5356   622.4810 </r>
       <r>     7.2472     9.2017   623.8887 </r>
       <r>     7.4002    12.5865   625.8143 </r>
       <r>     7.5532    13.3223   627.8524 </r>
       <r>     7.7062    17.4275   630.5186 </r>
       <r>     7.8592    18.5463   633.3559 </r>
       <r>     8.0122    21.2682   636.6097 </r>
       <r>     8.1651    23.6216   640.2235 </r>
       <r>     8.3181    29.7745   644.7785 </r>
       <r>     8.4711    27.6755   649.0125 </r>
       <r>     8.6241    26.5020   653.0670 </r>
       <r>     8.7771    28.9416   657.4946 </r>
       <r>     8.9301    33.3042   662.5897 </r>
       <r>     9.0831    35.7153   668.0537 </r>
       <r>     9.2361    39.7704   674.1380 </r>
       <r>     9.3890    42.0177   680.5662 </r>
       <r>     9.5420    44.7185   687.4075 </r>
       <r>     9.6950    48.8838   694.8860 </r>
       <r>     9.8480    56.6812   703.5575 </r>
       <r>    10.0010    63.0490   713.2031 </r>
       <r>    10.1540    60.3753   722.4397 </r>
       <r>    10.3070    52.7513   730.5099 </r>
       <r>    10.4599    58.1340   739.4037 </r>
       <r>    10.6129    58.2167   748.3100 </r>
       <r>    10.7659    54.0291   756.5757 </r>
       <r>    10.9189    53.8963   764.8211 </r>
       <r>    11.0719    20.7674   767.9983 </r>
       <r>    11.2249     0.0113   768.0000 </r>
       <r>    11.3779     0.0000   768.0000 </r>
       <r>    11.5308     0.0000   768.0000 </r>
       <r>    11.6838     0.0000   768.0000 </r>
       <r>    11.8368     0.0000   768.0000 </r>
       <r>    11.9898     0.0000   768.0000 </r>
       <r>    12.1428     0.0000   768.0000 </r>
       <r>    12.2958     0.0000   768.0000 </r>
       <r>    12.4488     0.0000   768.0000 </r>
       <r>    12.6018     0.0000   768.0000 </r>
       <r>    12.7547     0.0000   768.0000 </r>
       <r>    12.9077     0.0000   768.0000 </r>
       <r>    13.0607     0.0000   768.0000 </r>
      </set>
     </set>
    </array>
   </total>
  </dos>
 </calculation>
 <structure name="finalpos" >
  <crystal>
   <varray name="basis" >
    <v>      11.22039797      -0.05613069      -0.00298441 </v>
    <v>      -0.05609844      11.21537761      -0.00396144 </v>
    <v>      -0.00434962      -0.00591545      15.96717647 </v>
   </varray>
   <i name="volume">   2009.27476853 </i>
   <varray name="rec_basis" >
    <v>       0.08912564       0.00044581       0.00002444 </v>
    <v>       0.00044606       0.08916554       0.00003316 </v>
    <v>       0.00001677       0.00002221       0.06262849 </v>
   </varray>
  </crystal>
  <varray name="positions" >
   <v>       0.98903248       0.26148643       0.12084900 </v>
   <v>       0.00112234       0.25928718       0.61858831 </v>
   <v>       0.00237474       0.73836290       0.12618222 </v>
   <v>       0.01342893       0.73681064       0.62102317 </v>
   <v>       0.50715469       0.24747595       0.12096048 </v>
   <v>       0.48836010       0.23859621       0.63202398 </v>
   <v>       0.49620684       0.74867439       0.12329767 </v>
   <v>       0.50181163       0.76228600       0.62405338 </v>
   <v>       0.98863564       0.25970276       0.37571117 </v>
   <v>       0.99760583       0.25829009       0.87664385 </v>
   <v>       0.00519871       0.73853259       0.38058280 </v>
   <v>       0.00351263       0.73927139       0.87288543 </v>
   <v>       0.50728128       0.24158631       0.37687729 </v>
   <v>       0.49621608       0.24811538       0.87916359 </v>
   <v>       0.50111032       0.76194008       0.37924680 </v>
   <v>       0.49890868       0.74781388       0.87224830 </v>
   <v>       0.26051634       0.99076594       0.12472332 </v>
   <v>       0.26559520       0.98135087       0.62330358 </v>
   <v>       0.24831545       0.50899885       0.11832393 </v>
   <v>       0.24466802       0.50393237       0.62999362 </v>
   <v>       0.73767205       0.00078608       0.12360998 </v>
   <v>       0.74096553       0.00874301       0.62809604 </v>
   <v>       0.74839855       0.49833139       0.12557213 </v>
   <v>       0.75816753       0.52188593       0.62321087 </v>
   <v>       0.26315604       0.98565863       0.37950577 </v>
   <v>       0.25767121       0.98979222       0.87371991 </v>
   <v>       0.23944556       0.50795309       0.37889322 </v>
   <v>       0.25692128       0.50215190       0.87312713 </v>
   <v>       0.74498021       0.99966114       0.37572778 </v>
   <v>       0.73613687       0.99745085       0.87867773 </v>
   <v>       0.75735271       0.50505615       0.37690978 </v>
   <v>       0.74717992       0.50315884       0.87863462 </v>
   <v>       0.00030411       0.99948369       0.00782415 </v>
   <v>       0.00398955       0.00152417       0.50607404 </v>
   <v>       0.99856434       0.49865026       0.99832140 </v>
   <v>       0.49777324       0.99879174       0.99940153 </v>
   <v>       0.50004528       0.49867932       0.99844277 </v>
   <v>       0.49793236       0.49931414       0.50906004 </v>
   <v>       0.24854592       0.24886706       0.99738876 </v>
   <v>       0.24705962       0.24617104       0.50658870 </v>
   <v>       0.75009428       0.75002415       0.00104980 </v>
   <v>       0.75487807       0.75733486       0.50039114 </v>
   <v>       0.24860737       0.24891986       0.24442865 </v>
   <v>       0.24567898       0.24408497       0.75605935 </v>
   <v>       0.25180042       0.74573779       0.25186588 </v>
   <v>       0.25990457       0.74547498       0.75041369 </v>
   <v>       0.74685849       0.25190687       0.24749308 </v>
   <v>       0.74707970       0.74792634       0.25215992 </v>
   <v>       0.75142421       0.75619080       0.75111868 </v>
   <v>       0.00258090       0.00070687       0.24526065 </v>
   <v>       0.99915938       0.49949022       0.25168118 </v>
   <v>       0.50106923       0.00045458       0.25201546 </v>
   <v>       0.99782432       0.49826586       0.50253276 </v>
   <v>       0.50316052       0.00303883       0.50304399 </v>
   <v>       0.25017845       0.74868606       0.99690425 </v>
   <v>       0.25482670       0.74622804       0.49782708 </v>
   <v>       0.74906087       0.25076782       0.99874202 </v>
   <v>       0.74918120       0.25256602       0.48741666 </v>
   <v>       0.72935465       0.25039447       0.76011022 </v>
   <v>       0.01367333       0.99100038       0.74107912 </v>
   <v>       0.00891309       0.50857032       0.75084935 </v>
   <v>       0.49736690       0.99888055       0.75051508 </v>
   <v>       0.49534104       0.49727561       0.24023263 </v>
   <v>       0.50518053       0.49859642       0.74893946 </v>
   <v>       0.11949275       0.13105623       0.27797251 </v>
   <v>       0.10397635       0.12206149       0.77779367 </v>
   <v>       0.11456082       0.63149473       0.25310222 </v>
   <v>       0.12644062       0.62672964       0.75099877 </v>
   <v>       0.61640394       0.13315491       0.24665649 </v>
   <v>       0.60295501       0.14108633       0.75189894 </v>
   <v>       0.61333181       0.63103135       0.25405891 </v>
   <v>       0.62132205       0.64191617       0.73828982 </v>
   <v>       0.37566608       0.36230550       0.27526605 </v>
   <v>       0.37903357       0.35771092       0.74990386 </v>
   <v>       0.38519278       0.86568677       0.25090031 </v>
   <v>       0.38823651       0.86104616       0.74929788 </v>
   <v>       0.88036389       0.36824896       0.24480132 </v>
   <v>       0.89042702       0.87234116       0.26664495 </v>
   <v>       0.88581206       0.89568586       0.77845376 </v>
   <v>       0.36283484       0.11751388       0.25893497 </v>
   <v>       0.35142127       0.10952614       0.74915256 </v>
   <v>       0.36536435       0.61236363       0.25439997 </v>
   <v>       0.37122976       0.61083780       0.75125164 </v>
   <v>       0.87488855       0.11453573       0.25816775 </v>
   <v>       0.85487451       0.17547658       0.70977461 </v>
   <v>       0.86677177       0.61807548       0.24723612 </v>
   <v>       0.87161958       0.62462535       0.75208386 </v>
   <v>       0.13100121       0.37575956       0.26095894 </v>
   <v>       0.11958920       0.36836431       0.75030391 </v>
   <v>       0.13253870       0.88853747       0.25587720 </v>
   <v>       0.13577332       0.87547219       0.74905391 </v>
   <v>       0.62897037       0.38254615       0.25261074 </v>
   <v>       0.65419460       0.39490024       0.73098077 </v>
   <v>       0.63607960       0.88476808       0.24852283 </v>
   <v>       0.63950098       0.88875382       0.74982979 </v>
   <v>       0.36012342       0.38525068       0.00029452 </v>
   <v>       0.36609900       0.37231205       0.48263506 </v>
   <v>       0.36266537       0.88664989       0.00474012 </v>
   <v>       0.38078862       0.87198062       0.49749367 </v>
   <v>       0.86567906       0.38582591       0.01043308 </v>
   <v>       0.86021867       0.37545437       0.51352438 </v>
   <v>       0.86434315       0.88894442       0.99544700 </v>
   <v>       0.88446080       0.88339535       0.47626496 </v>
   <v>       0.13507085       0.10985401       0.99137191 </v>
   <v>       0.12673003       0.12181391       0.46985799 </v>
   <v>       0.13345583       0.61109171       0.99353789 </v>
   <v>       0.12934404       0.61673358       0.50425294 </v>
   <v>       0.63366949       0.11381596       0.99880342 </v>
   <v>       0.62845087       0.14380733       0.52082418 </v>
   <v>       0.63705335       0.61346199       0.00861148 </v>
   <v>       0.62597939       0.63004402       0.51061038 </v>
   <v>       0.11219647       0.35997711       0.00088945 </v>
   <v>       0.12118339       0.36274249       0.48937899 </v>
   <v>       0.10614495       0.86911640       0.98503576 </v>
   <v>       0.12372389       0.87761581       0.49290712 </v>
   <v>       0.61206487       0.36355635       0.00415274 </v>
   <v>       0.61453707       0.38968780       0.47133348 </v>
   <v>       0.61415357       0.86406919       0.00407010 </v>
   <v>       0.63633841       0.88326511       0.50294718 </v>
   <v>       0.38386100       0.13772951       0.00373207 </v>
   <v>       0.37047176       0.12920967       0.48854693 </v>
   <v>       0.38791064       0.63306533       0.99954670 </v>
   <v>       0.38641358       0.61793850       0.47605138 </v>
   <v>       0.89195565       0.12755577       0.98509021 </v>
   <v>       0.88257570       0.12536975       0.49271124 </v>
   <v>       0.88622529       0.63629332       0.00167272 </v>
   <v>       0.87813525       0.63287090       0.50158008 </v>
   <v>       0.00622558       0.00599076       0.12672478 </v>
   <v>       0.00833515       0.00253498       0.62222314 </v>
   <v>       0.01038150       0.50028775       0.12645957 </v>
   <v>       0.99247130       0.49008551       0.63043541 </v>
   <v>       0.49646663       0.00360223       0.12730893 </v>
   <v>       0.49284821       0.00197724       0.62545709 </v>
   <v>       0.48841810       0.49108900       0.12437331 </v>
   <v>       0.48345342       0.48571628       0.62270008 </v>
   <v>       0.98800232       0.49799079       0.37502798 </v>
   <v>       0.98431558       0.48730682       0.87305063 </v>
   <v>       0.51259270       0.00311793       0.37519587 </v>
   <v>       0.49568638       0.99747603       0.87772166 </v>
   <v>       0.51072980       0.49540197       0.87411183 </v>
   <v>       0.25525615       0.25416581       0.87757714 </v>
   <v>       0.24528988       0.74973921       0.37266080 </v>
   <v>       0.25725456       0.74842051       0.87335545 </v>
   <v>       0.75101571       0.24437876       0.36989345 </v>
   <v>       0.76103657       0.26734781       0.87482186 </v>
   <v>       0.74214390       0.74413283       0.37578071 </v>
   <v>       0.74140680       0.74519884       0.87778132 </v>
   <v>       0.24252726       0.24501726       0.12834110 </v>
   <v>       0.23740623       0.23610101       0.62327311 </v>
   <v>       0.24095255       0.75030700       0.12634932 </v>
   <v>       0.25878560       0.74319496       0.62357370 </v>
   <v>       0.75566644       0.23738567       0.12570631 </v>
   <v>       0.75839441       0.75779093       0.12777076 </v>
   <v>       0.77753096       0.77321714       0.62619816 </v>
  </varray>
 </structure>
</modeling>
