       N       E                     dE             d eps       ncg     rms          rms(c)
DAV:   1    -0.108973757627E+04   -0.10897E+04   -0.17654E-01 13136   0.970E-01    0.650E-02
RMM:   2    -0.108973757422E+04    0.20474E-05   -0.12183E-04  7614   0.191E-02    0.113E-01
RMM:   3    -0.108973757392E+04    0.29910E-06   -0.28765E-05  7003   0.107E-02    0.146E-02
RMM:   4    -0.108973757636E+04   -0.24399E-05   -0.13119E-05  6261   0.439E-03    0.981E-03
RMM:   5    -0.108973757850E+04   -0.21396E-05   -0.65949E-06  5916   0.411E-03    0.138E-02
RMM:   6    -0.108973757913E+04   -0.63023E-06   -0.39330E-06  4726   0.296E-03    0.326E-03
RMM:   7    -0.108973757931E+04   -0.17435E-06   -0.21873E-06  3686   0.268E-03    0.161E-03
RMM:   8    -0.108973757945E+04   -0.13704E-06   -0.13614E-06  2950   0.221E-03
   1 F= -.10897376E+04 E0= -.10897376E+04  d E =-.108974E+04  mag=    60.0000
       N       E                     dE             d eps       ncg     rms          rms(c)
DAV:   1    -0.108973786835E+04   -0.28904E-03   -0.16513E+00 12416   0.151E+00    0.610E-01
RMM:   2    -0.108974186749E+04   -0.39991E-02   -0.51296E-02 12384   0.313E-01    0.508E-01
RMM:   3    -0.108974189007E+04   -0.22582E-04   -0.31604E-03 13067   0.932E-02    0.310E-01
RMM:   4    -0.108974147233E+04    0.41774E-03   -0.76757E-04 11293   0.344E-02    0.190E-01
RMM:   5    -0.108974131133E+04    0.16099E-03   -0.63536E-04 10601   0.296E-02    0.474E-02
RMM:   6    -0.108974130916E+04    0.21751E-05   -0.52801E-05  7409   0.128E-02    0.461E-02
RMM:   7    -0.108974131058E+04   -0.14246E-05   -0.21839E-05  7162   0.654E-03    0.242E-02
RMM:   8    -0.108974131034E+04    0.24441E-06   -0.13775E-05  6886   0.568E-03
   2 F= -.10897413E+04 E0= -.10897413E+04  d E =-.373089E-02  mag=    60.0000
       N       E                     dE             d eps       ncg     rms          rms(c)
DAV:   1    -0.108974146900E+04   -0.15842E-03   -0.78244E-02 13184   0.329E-01    0.139E-01
RMM:   2    -0.108974165434E+04   -0.18535E-03   -0.23981E-03 12200   0.677E-02    0.113E-01
RMM:   3    -0.108974165173E+04    0.26106E-05   -0.10114E-04  7163   0.205E-02    0.695E-02
RMM:   4    -0.108974163628E+04    0.15457E-04   -0.39087E-05  6884   0.948E-03    0.420E-02
RMM:   5    -0.108974162928E+04    0.69958E-05   -0.32020E-05  6631   0.693E-03    0.297E-02
RMM:   6    -0.108974162970E+04   -0.41848E-06   -0.75313E-06  5731   0.485E-03    0.133E-02
RMM:   7    -0.108974162971E+04   -0.13722E-07   -0.15041E-06  3625   0.222E-03    0.601E-03
RMM:   8    -0.108974162968E+04    0.33804E-07   -0.62827E-07  2991   0.216E-03
   3 F= -.10897416E+04 E0= -.10897416E+04  d E =-.405023E-02  mag=    60.0000
       N       E                     dE             d eps       ncg     rms          rms(c)
DAV:   1    -0.108974182530E+04   -0.19559E-03   -0.14386E+00 12416   0.141E+00    0.376E-01
RMM:   2    -0.108974516648E+04   -0.33412E-02   -0.38142E-02 12420   0.259E-01    0.270E-01
RMM:   3    -0.108974515896E+04    0.75199E-05   -0.20942E-03 12386   0.845E-02    0.169E-01
RMM:   4    -0.108974503313E+04    0.12583E-03   -0.53725E-04 10929   0.273E-02    0.918E-02
RMM:   5    -0.108974500219E+04    0.30941E-04   -0.15203E-04  7455   0.178E-02    0.457E-02
RMM:   6    -0.108974500774E+04   -0.55493E-05   -0.43528E-05  7196   0.115E-02    0.378E-02
RMM:   7    -0.108974501077E+04   -0.30293E-05   -0.22247E-05  7046   0.653E-03    0.145E-02
RMM:   8    -0.108974501299E+04   -0.22161E-05   -0.12331E-05  6769   0.583E-03
   4 F= -.10897450E+04 E0= -.10897450E+04  d E =-.338331E-02  mag=    60.0000
       N       E                     dE             d eps       ncg     rms          rms(c)
DAV:   1    -0.108974406327E+04    0.94751E-03   -0.78096E-01 12416   0.104E+00    0.277E-01
RMM:   2    -0.108974590264E+04   -0.18394E-02   -0.20935E-02 12429   0.192E-01    0.200E-01
RMM:   3    -0.108974590117E+04    0.14733E-05   -0.11979E-03 12052   0.625E-02    0.126E-01
RMM:   4    -0.108974582948E+04    0.71687E-04   -0.26305E-04  8169   0.202E-02    0.694E-02
RMM:   5    -0.108974581679E+04    0.12691E-04   -0.96495E-05  7286   0.137E-02    0.299E-02
RMM:   6    -0.108974582076E+04   -0.39726E-05   -0.29803E-05  7142   0.914E-03    0.273E-02
RMM:   7    -0.108974582283E+04   -0.20702E-05   -0.16728E-05  6799   0.565E-03    0.118E-02
RMM:   8    -0.108974582445E+04   -0.16167E-05   -0.96966E-06  6536   0.513E-03
   5 F= -.10897458E+04 E0= -.10897458E+04  d E =-.419477E-02  mag=    60.0000
       N       E                     dE             d eps       ncg     rms          rms(c)
DAV:   1    -0.108974604079E+04   -0.21796E-03   -0.93547E-01 12824   0.113E+00    0.306E-01
RMM:   2    -0.108974843717E+04   -0.23964E-02   -0.24038E-02 12569   0.203E-01    0.196E-01
RMM:   3    -0.108974848006E+04   -0.42892E-04   -0.12906E-03 11962   0.641E-02    0.123E-01
RMM:   4    -0.108974841477E+04    0.65288E-04   -0.26364E-04  8179   0.204E-02    0.702E-02
RMM:   5    -0.108974839596E+04    0.18817E-04   -0.10919E-04  7216   0.143E-02    0.281E-02
RMM:   6    -0.108974839906E+04   -0.31001E-05   -0.34453E-05  7090   0.983E-03    0.302E-02
RMM:   7    -0.108974840048E+04   -0.14259E-05   -0.19044E-05  6945   0.617E-03    0.127E-02
RMM:   8    -0.108974840043E+04    0.50510E-07   -0.11439E-05  6761   0.577E-03
   6 F= -.10897484E+04 E0= -.10897484E+04  d E =-.257598E-02  mag=    60.0000
       N       E                     dE             d eps       ncg     rms          rms(c)
DAV:   1    -0.108974324753E+04    0.51530E-02   -0.27443E+00 12576   0.193E+00    0.523E-01
RMM:   2    -0.108975026794E+04   -0.70204E-02   -0.70307E-02 12540   0.348E-01    0.335E-01
RMM:   3    -0.108975041279E+04   -0.14485E-03   -0.38282E-03 12819   0.110E-01    0.210E-01
RMM:   4    -0.108975023245E+04    0.18034E-03   -0.87622E-04 13405   0.346E-02    0.117E-01
RMM:   5    -0.108975017742E+04    0.55036E-04   -0.33687E-04  9363   0.207E-02    0.487E-02
RMM:   6    -0.108975017980E+04   -0.23792E-05   -0.66995E-05  7244   0.132E-02    0.464E-02
RMM:   7    -0.108975018269E+04   -0.28952E-05   -0.36237E-05  7153   0.828E-03    0.192E-02
RMM:   8    -0.108975018264E+04    0.51703E-07   -0.21551E-05  7067   0.750E-03
   7 F= -.10897502E+04 E0= -.10897502E+04  d E =-.435819E-02  mag=    60.0000
       N       E                     dE             d eps       ncg     rms          rms(c)
DAV:   1    -0.108974947204E+04    0.71065E-03   -0.10961E+00 12432   0.122E+00    0.289E-01
RMM:   2    -0.108975216707E+04   -0.26950E-02   -0.27801E-02 12533   0.216E-01    0.194E-01
RMM:   3    -0.108975219543E+04   -0.28361E-04   -0.14602E-03 12012   0.695E-02    0.119E-01
RMM:   4    -0.108975212676E+04    0.68672E-04   -0.32957E-04  9090   0.215E-02    0.692E-02
RMM:   5    -0.108975210586E+04    0.20894E-04   -0.11808E-04  7268   0.149E-02    0.316E-02
RMM:   6    -0.108975211036E+04   -0.44945E-05   -0.37208E-05  7087   0.100E-02    0.291E-02
RMM:   7    -0.108975211245E+04   -0.20952E-05   -0.20525E-05  6881   0.625E-03    0.132E-02
RMM:   8    -0.108975211349E+04   -0.10381E-05   -0.12241E-05  6622   0.587E-03
   8 F= -.10897521E+04 E0= -.10897521E+04  d E =-.193085E-02  mag=    60.0000
       N       E                     dE             d eps       ncg     rms          rms(c)
DAV:   1    -0.108974976355E+04    0.23489E-02   -0.13001E+00 12368   0.132E+00    0.314E-01
RMM:   2    -0.108975295969E+04   -0.31961E-02   -0.32967E-02 12556   0.236E-01    0.212E-01
RMM:   3    -0.108975299453E+04   -0.34837E-04   -0.17335E-03 12212   0.750E-02    0.130E-01
RMM:   4    -0.108975291306E+04    0.81468E-04   -0.38531E-04  9721   0.231E-02    0.752E-02
RMM:   5    -0.108975288736E+04    0.25702E-04   -0.14131E-04  7334   0.162E-02    0.353E-02
RMM:   6    -0.108975289229E+04   -0.49360E-05   -0.43234E-05  7110   0.110E-02    0.343E-02
RMM:   7    -0.108975289468E+04   -0.23881E-05   -0.23310E-05  6958   0.669E-03    0.138E-02
RMM:   8    -0.108975289584E+04   -0.11558E-05   -0.13648E-05  6739   0.629E-03
   9 F= -.10897529E+04 E0= -.10897529E+04  d E =-.271320E-02  mag=    60.0000
       N       E                     dE             d eps       ncg     rms          rms(c)
DAV:   1    -0.108975220831E+04    0.68637E-03   -0.10003E+00 12560   0.117E+00    0.273E-01
RMM:   2    -0.108975470486E+04   -0.24966E-02   -0.25525E-02 12583   0.208E-01    0.179E-01
RMM:   3    -0.108975473649E+04   -0.31630E-04   -0.13181E-03 11936   0.657E-02    0.107E-01
RMM:   4    -0.108975467946E+04    0.57031E-04   -0.26214E-04  8310   0.200E-02    0.630E-02
RMM:   5    -0.108975466113E+04    0.18328E-04   -0.11437E-04  7215   0.144E-02    0.280E-02
RMM:   6    -0.108975466531E+04   -0.41812E-05   -0.35269E-05  7092   0.967E-03    0.260E-02
RMM:   7    -0.108975466732E+04   -0.20109E-05   -0.19732E-05  6846   0.599E-03    0.126E-02
RMM:   8    -0.108975466827E+04   -0.94630E-06   -0.11567E-05  6614   0.570E-03
  10 F= -.10897547E+04 E0= -.10897547E+04  d E =-.177243E-02  mag=    60.0000
       N       E                     dE             d eps       ncg     rms          rms(c)
DAV:   1    -0.108975117269E+04    0.34946E-02   -0.18085E+00 12504   0.157E+00    0.368E-01
RMM:   2    -0.108975566419E+04   -0.44915E-02   -0.45911E-02 12523   0.279E-01    0.240E-01
RMM:   3    -0.108975573241E+04   -0.68213E-04   -0.24052E-03 12479   0.897E-02    0.144E-01
RMM:   4    -0.108975563455E+04    0.97854E-04   -0.52803E-04 11109   0.269E-02    0.827E-02
RMM:   5    -0.108975560086E+04    0.33691E-04   -0.21549E-04  7777   0.185E-02    0.419E-02
RMM:   6    -0.108975560525E+04   -0.43895E-05   -0.54674E-05  7173   0.126E-02    0.371E-02
RMM:   7    -0.108975560834E+04   -0.30883E-05   -0.28937E-05  7097   0.743E-03    0.152E-02
RMM:   8    -0.108975560964E+04   -0.12978E-05   -0.16780E-05  6950   0.704E-03
  11 F= -.10897556E+04 E0= -.10897556E+04  d E =-.271380E-02  mag=    60.0000
       N       E                     dE             d eps       ncg     rms          rms(c)
DAV:   1    -0.108975510655E+04    0.50179E-03   -0.70974E-01 12584   0.986E-01    0.233E-01
RMM:   2    -0.108975687596E+04   -0.17694E-02   -0.18391E-02 12668   0.177E-01    0.159E-01
RMM:   3    -0.108975688629E+04   -0.10336E-04   -0.91808E-04 11339   0.547E-02    0.996E-02
RMM:   4    -0.108975684693E+04    0.39365E-04   -0.16257E-04  7471   0.172E-02    0.617E-02
RMM:   5    -0.108975683343E+04    0.13496E-04   -0.92612E-05  7167   0.126E-02    0.229E-02
RMM:   6    -0.108975683744E+04   -0.40032E-05   -0.27431E-05  7016   0.816E-03    0.126E-02
RMM:   7    -0.108975683901E+04   -0.15716E-05   -0.15248E-05  6481   0.500E-03    0.792E-03
RMM:   8    -0.108975683969E+04   -0.68643E-06   -0.86053E-06  6007   0.472E-03
  12 F= -.10897568E+04 E0= -.10897568E+04  d E =-.123006E-02  mag=    60.0000
