<?xml version="1.0" encoding="ISO-8859-1"?>
<modeling>
 <generator>
  <i name="program" type="string">vasp </i>
  <i name="version" type="string">5.4.1  </i>
  <i name="subversion" type="string">05Feb16 (build Jan 25 2017 20:16:33) complex                          parallel </i>
  <i name="platform" type="string">BWXE6 </i>
  <i name="date" type="string">2019 08 12 </i>
  <i name="time" type="string">10:31:41 </i>
 </generator>
 <incar>
  <i type="string" name="SYSTEM"> STF</i>
  <i type="string" name="PREC">normal</i>
  <i type="string" name="ALGO"> Fast</i>
  <i type="int" name="ISPIN">     2</i>
  <i type="int" name="NELM">    40</i>
  <i type="int" name="NELMIN">     8</i>
  <i type="int" name="IBRION">     2</i>
  <i name="EDIFF">      0.00010000</i>
  <i name="EDIFFG">     -0.03000000</i>
  <i type="int" name="NSW">    30</i>
  <i type="int" name="ISIF">     3</i>
  <i name="ENCUT">    520.00000000</i>
  <i type="int" name="NBANDS">   768</i>
  <v name="MAGMOM">      0.60000000      0.60000000      0.60000000      0.60000000      0.60000000      0.60000000      0.60000000      0.60000000      0.60000000      0.60000000      0.60000000      0.60000000      0.60000000      0.60000000      0.60000000      0.60000000      0.60000000      0.60000000      0.60000000      0.60000000
      0.60000000      0.60000000      0.60000000      0.60000000      0.60000000      0.60000000      0.60000000      0.60000000      0.60000000      0.60000000      0.60000000      0.60000000      0.60000000      0.60000000      0.60000000      0.60000000      0.60000000      0.60000000      0.60000000      0.60000000
      0.60000000      0.60000000      0.60000000      0.60000000      0.60000000      0.60000000      0.60000000      0.60000000      0.60000000      0.60000000      0.60000000      0.60000000      5.00000000      5.00000000      5.00000000      5.00000000      5.00000000      5.00000000      5.00000000      5.00000000
      5.00000000      5.00000000      5.00000000      5.00000000      0.60000000      0.60000000      0.60000000      0.60000000      0.60000000      0.60000000      0.60000000      0.60000000      0.60000000      0.60000000      0.60000000      0.60000000      0.60000000      0.60000000      0.60000000      0.60000000
      0.60000000      0.60000000      0.60000000      0.60000000      0.60000000      0.60000000      0.60000000      0.60000000      0.60000000      0.60000000      0.60000000      0.60000000      0.60000000      0.60000000      0.60000000      0.60000000      0.60000000      0.60000000      0.60000000      0.60000000
      0.60000000      0.60000000      0.60000000      0.60000000      0.60000000      0.60000000      0.60000000      0.60000000      0.60000000      0.60000000      0.60000000      0.60000000      0.60000000      0.60000000      0.60000000      0.60000000      0.60000000      0.60000000      0.60000000      0.60000000
      0.60000000      0.60000000      0.60000000      0.60000000      0.60000000      0.60000000      0.60000000      0.60000000      0.60000000      0.60000000      0.60000000      0.60000000      0.60000000      0.60000000      0.60000000      0.60000000      0.60000000      0.60000000      0.60000000      0.60000000
      0.60000000      0.60000000      0.60000000      0.60000000      0.60000000      0.60000000      0.60000000      0.60000000      0.60000000      0.60000000      0.60000000      0.60000000      0.60000000      0.60000000</v>
  <i type="string" name="LREAL"> Auto</i>
  <i type="int" name="ISMEAR">     0</i>
  <i name="SIGMA">      0.05000000</i>
  <i type="int" name="LMAXMIX">     4</i>
  <v type="int" name="KPOINT_BSE">    -1     0     0     0</v>
  <i type="int" name="NELM">    40</i>
  <i type="logical" name="LDAU"> T  </i>
  <v type="int" name="LDAUTYPE">     2</v>
  <v type="int" name="LDAUL">     0     2     2     0</v>
  <v name="LDAUU">      0.00000000      3.00000000      5.00000000      0.00000000</v>
  <v name="LDAUJ">      0.00000000      0.00000000      0.00000000      0.00000000</v>
  <i type="int" name="LDAUPRINT">     1</i>
 </incar>
 <kpoints>
  <generation param="Monkhorst-Pack">
   <v type="int" name="divisions">       2        2        2 </v>
   <v name="usershift">      0.00000000       0.00000000       0.00000000 </v>
   <v name="genvec1">      0.50000000       0.00000000       0.00000000 </v>
   <v name="genvec2">      0.00000000       0.50000000      -0.00000000 </v>
   <v name="genvec3">      0.00000000       0.00000000       0.50000000 </v>
   <v name="shift">      0.50000000       0.50000000       0.50000000 </v>
  </generation>
  <varray name="kpointlist" >
   <v>       0.25000000       0.25000000       0.25000000 </v>
   <v>      -0.25000000       0.25000000       0.25000000 </v>
   <v>       0.25000000      -0.25000000       0.25000000 </v>
   <v>      -0.25000000      -0.25000000       0.25000000 </v>
  </varray>
  <varray name="weights" >
   <v>       0.25000000 </v>
   <v>       0.25000000 </v>
   <v>       0.25000000 </v>
   <v>       0.25000000 </v>
  </varray>
 </kpoints>
 <parameters>
  <separator name="general" >
   <i type="string" name="SYSTEM">STF</i>
   <i type="logical" name="LCOMPAT"> F  </i>
  </separator>
  <separator name="electronic" >
   <i type="string" name="PREC">normal</i>
   <i name="ENMAX">    520.00000000</i>
   <i name="ENAUG">    605.39200000</i>
   <i name="EDIFF">      0.00010000</i>
   <i type="int" name="IALGO">    68</i>
   <i type="int" name="IWAVPR">    11</i>
   <i type="int" name="NBANDS">   768</i>
   <i name="NELECT">   1036.00000000</i>
   <i type="int" name="TURBO">     0</i>
   <i type="int" name="IRESTART">     0</i>
   <i type="int" name="NREBOOT">     0</i>
   <i type="int" name="NMIN">     0</i>
   <i name="EREF">      0.00000000</i>
   <separator name="electronic smearing" >
    <i type="int" name="ISMEAR">     0</i>
    <i name="SIGMA">      0.05000000</i>
    <i name="KSPACING">      0.50000000</i>
    <i type="logical" name="KGAMMA"> T  </i>
   </separator>
   <separator name="electronic projectors" >
    <i type="logical" name="LREAL"> T  </i>
    <v name="ROPT">     -0.00050000     -0.00050000     -0.00050000     -0.00050000</v>
    <i type="int" name="LMAXPAW">  -100</i>
    <i type="int" name="LMAXMIX">     4</i>
    <i type="logical" name="NLSPLINE"> F  </i>
   </separator>
   <separator name="electronic startup" >
    <i type="int" name="ISTART">     1</i>
    <i type="int" name="ICHARG">     0</i>
    <i type="int" name="INIWAV">     1</i>
   </separator>
   <separator name="electronic spin" >
    <i type="int" name="ISPIN">     2</i>
    <i type="logical" name="LNONCOLLINEAR"> F  </i>
    <v name="MAGMOM">      0.60000000      0.60000000      0.60000000      0.60000000      0.60000000      0.60000000      0.60000000      0.60000000      0.60000000      0.60000000      0.60000000      0.60000000      0.60000000      0.60000000      0.60000000      0.60000000      0.60000000      0.60000000      0.60000000      0.60000000
      0.60000000      0.60000000      0.60000000      0.60000000      0.60000000      0.60000000      0.60000000      0.60000000      0.60000000      0.60000000      0.60000000      0.60000000      0.60000000      0.60000000      0.60000000      0.60000000      0.60000000      0.60000000      0.60000000      0.60000000
      0.60000000      0.60000000      0.60000000      0.60000000      0.60000000      0.60000000      0.60000000      0.60000000      0.60000000      0.60000000      0.60000000      0.60000000      5.00000000      5.00000000      5.00000000      5.00000000      5.00000000      5.00000000      5.00000000      5.00000000
      5.00000000      5.00000000      5.00000000      5.00000000      0.60000000      0.60000000      0.60000000      0.60000000      0.60000000      0.60000000      0.60000000      0.60000000      0.60000000      0.60000000      0.60000000      0.60000000      0.60000000      0.60000000      0.60000000      0.60000000
      0.60000000      0.60000000      0.60000000      0.60000000      0.60000000      0.60000000      0.60000000      0.60000000      0.60000000      0.60000000      0.60000000      0.60000000      0.60000000      0.60000000      0.60000000      0.60000000      0.60000000      0.60000000      0.60000000      0.60000000
      0.60000000      0.60000000      0.60000000      0.60000000      0.60000000      0.60000000      0.60000000      0.60000000      0.60000000      0.60000000      0.60000000      0.60000000      0.60000000      0.60000000      0.60000000      0.60000000      0.60000000      0.60000000      0.60000000      0.60000000
      0.60000000      0.60000000      0.60000000      0.60000000      0.60000000      0.60000000      0.60000000      0.60000000      0.60000000      0.60000000      0.60000000      0.60000000      0.60000000      0.60000000      0.60000000      0.60000000      0.60000000      0.60000000      0.60000000      0.60000000
      0.60000000      0.60000000      0.60000000      0.60000000      0.60000000      0.60000000      0.60000000      0.60000000      0.60000000      0.60000000      0.60000000      0.60000000      0.60000000      0.60000000</v>
    <i name="NUPDOWN">     -1.00000000</i>
    <i type="logical" name="LSORBIT"> F  </i>
    <v name="SAXIS">      0.00000000      0.00000000      1.00000000</v>
    <i type="logical" name="LSPIRAL"> F  </i>
    <v name="QSPIRAL">      0.00000000      0.00000000      0.00000000</v>
    <i type="logical" name="LZEROZ"> F  </i>
   </separator>
   <separator name="electronic exchange-correlation" >
    <i type="logical" name="LASPH"> F  </i>
    <i type="logical" name="LMETAGGA"> F  </i>
   </separator>
   <separator name="electronic convergence" >
    <i type="int" name="NELM">    40</i>
    <i type="int" name="NELMDL">     0</i>
    <i type="int" name="NELMIN">     8</i>
    <i name="ENINI">    520.00000000</i>
    <separator name="electronic convergence detail" >
     <i type="logical" name="LDIAG"> T  </i>
     <i type="logical" name="LSUBROT"> F  </i>
     <i name="WEIMIN">      0.00100000</i>
     <i name="EBREAK">      0.00000003</i>
     <i name="DEPER">      0.30000000</i>
     <i type="int" name="NRMM">     4</i>
     <i name="TIME">      0.40000000</i>
    </separator>
   </separator>
   <separator name="electronic mixer" >
    <i name="AMIX">      0.40000000</i>
    <i name="BMIX">      1.00000000</i>
    <i name="AMIN">      0.10000000</i>
    <i name="AMIX_MAG">      1.60000000</i>
    <i name="BMIX_MAG">      1.00000000</i>
    <separator name="electronic mixer details" >
     <i type="int" name="IMIX">     4</i>
     <i type="logical" name="MIXFIRST"> F  </i>
     <i type="int" name="MAXMIX">   -45</i>
     <i name="WC">    100.00000000</i>
     <i type="int" name="INIMIX">     1</i>
     <i type="int" name="MIXPRE">     1</i>
     <i type="int" name="MREMOVE">     5</i>
    </separator>
   </separator>
   <separator name="electronic dipolcorrection" >
    <i type="logical" name="LDIPOL"> F  </i>
    <i type="logical" name="LMONO"> F  </i>
    <i type="int" name="IDIPOL">     0</i>
    <i name="EPSILON">      1.00000000</i>
    <v name="DIPOL">   -100.00000000   -100.00000000   -100.00000000</v>
    <i name="EFIELD">      0.00000000</i>
   </separator>
  </separator>
  <separator name="grids" >
   <i type="int" name="NGX">    64</i>
   <i type="int" name="NGY">    64</i>
   <i type="int" name="NGZ">    90</i>
   <i type="int" name="NGXF">   128</i>
   <i type="int" name="NGYF">   128</i>
   <i type="int" name="NGZF">   180</i>
   <i type="logical" name="ADDGRID"> F  </i>
  </separator>
  <separator name="ionic" >
   <i type="int" name="NSW">    30</i>
   <i type="int" name="IBRION">     2</i>
   <i type="int" name="ISIF">     3</i>
   <i name="PSTRESS">      0.00000000</i>
   <i name="EDIFFG">     -0.03000000</i>
   <i type="int" name="NFREE">     1</i>
   <i name="POTIM">      0.50000000</i>
   <i name="SMASS">     -3.00000000</i>
   <i name="SCALEE">      1.00000000</i>
  </separator>
  <separator name="ionic md" >
   <i name="TEBEG">      0.00010000</i>
   <i name="TEEND">      0.00010000</i>
   <i type="int" name="NBLOCK">     1</i>
   <i type="int" name="KBLOCK">    30</i>
   <i type="int" name="NPACO">   256</i>
   <i name="APACO">     16.00000000</i>
  </separator>
  <separator name="symmetry" >
   <i type="int" name="ISYM">     2</i>
   <i name="SYMPREC">      0.00001000</i>
  </separator>
  <separator name="dos" >
   <i type="logical" name="LORBIT"> F  </i>
   <v name="RWIGS">     -1.00000000     -1.00000000     -1.00000000     -1.00000000</v>
   <i type="int" name="NEDOS">   301</i>
   <i name="EMIN">     10.00000000</i>
   <i name="EMAX">    -10.00000000</i>
   <i name="EFERMI">      0.00000000</i>
  </separator>
  <separator name="writing" >
   <i type="int" name="NWRITE">     2</i>
   <i type="logical" name="LWAVE"> T  </i>
   <i type="logical" name="LCHARG"> T  </i>
   <i type="logical" name="LPARD"> F  </i>
   <i type="logical" name="LVTOT"> F  </i>
   <i type="logical" name="LVHAR"> F  </i>
   <i type="logical" name="LELF"> F  </i>
   <i type="logical" name="LOPTICS"> F  </i>
   <v name="STM">      0.00000000      0.00000000      0.00000000      0.00000000      0.00000000      0.00000000      0.00000000</v>
  </separator>
  <separator name="performance" >
   <i type="int" name="NPAR">     2</i>
   <i type="int" name="NSIM">     4</i>
   <i type="int" name="NBLK">    -1</i>
   <i type="logical" name="LPLANE"> T  </i>
   <i type="logical" name="LSCALAPACK"> T  </i>
   <i type="logical" name="LSCAAWARE"> F  </i>
   <i type="logical" name="LSCALU"> F  </i>
   <i type="logical" name="LASYNC"> F  </i>
   <i type="logical" name="LORBITALREAL"> F  </i>
  </separator>
  <separator name="miscellaneous" >
   <i type="int" name="IDIOT">     3</i>
   <i type="logical" name="LMUSIC"> F  </i>
   <v name="POMASS">     87.62000000     47.88000000     55.84700000     16.00000000</v>
   <v name="DARWINR">      0.00000000      0.00000000      0.00000000      0.00000000</v>
   <v name="DARWINV">      1.00000000      1.00000000      1.00000000      1.00000000</v>
   <i type="logical" name="LCORR"> T  </i>
  </separator>
  <i type="logical" name="GGA_COMPAT"> T  </i>
  <i type="logical" name="LBERRY"> F  </i>
  <i type="int" name="ICORELEVEL">     0</i>
  <i type="logical" name="LDAU"> T  </i>
  <v type="int" name="LDAUTYPE">     2</v>
  <v type="int" name="LDAUL">     0</v>
  <v name="LDAUU">      0.00000000</v>
  <v name="LDAUJ">      0.00000000</v>
  <i type="int" name="LDAUPRINT">     1</i>
  <i type="int" name="I_CONSTRAINED_M">     0</i>
  <separator name="electronic exchange-correlation" >
   <i type="string" name="GGA">--</i>
   <i type="int" name="VOSKOWN">     0</i>
   <i type="logical" name="LHFCALC"> F  </i>
   <i type="string" name="PRECFOCK"></i>
   <i type="logical" name="LSYMGRAD"> F  </i>
   <i type="logical" name="LHFONE"> F  </i>
   <i type="logical" name="LRHFCALC"> F  </i>
   <i type="logical" name="LTHOMAS"> F  </i>
   <i type="logical" name="LMODELHF"> F  </i>
   <i name="ENCUT4O">     -1.00000000</i>
   <i type="int" name="EXXOEP">     0</i>
   <i type="int" name="FOURORBIT">     0</i>
   <i name="AEXX">      0.00000000</i>
   <i name="HFALPHA">      0.00000000</i>
   <i name="MCALPHA">      0.00000000</i>
   <i name="ALDAX">      1.00000000</i>
   <i name="AGGAX">      1.00000000</i>
   <i name="ALDAC">      1.00000000</i>
   <i name="AGGAC">      1.00000000</i>
   <i type="int" name="NKREDX">     1</i>
   <i type="int" name="NKREDY">     1</i>
   <i type="int" name="NKREDZ">     1</i>
   <i type="logical" name="SHIFTRED"> F  </i>
   <i type="logical" name="ODDONLY"> F  </i>
   <i type="logical" name="EVENONLY"> F  </i>
   <i type="int" name="LMAXFOCK">     0</i>
   <i type="int" name="NMAXFOCKAE">     0</i>
   <i type="logical" name="LFOCKAEDFT"> F  </i>
   <i name="HFSCREEN">      0.00000000</i>
   <i name="HFSCREENC">      0.00000000</i>
   <i type="int" name="NBANDSGWLOW">     0</i>
  </separator>
  <separator name="vdW DFT" >
   <i type="logical" name="LUSE_VDW"> F  </i>
   <i name="Zab_VDW">     -0.84910000</i>
   <i name="PARAM1">      0.12340000</i>
   <i name="PARAM2">      1.00000000</i>
   <i name="PARAM3">      0.00000000</i>
  </separator>
  <separator name="model GW" >
   <i type="int" name="MODEL_GW">     0</i>
   <i name="MODEL_EPS0">      7.82294845</i>
   <i name="MODEL_ALPHA">      1.00000000</i>
  </separator>
  <separator name="linear response parameters" >
   <i type="logical" name="LEPSILON"> F  </i>
   <i type="logical" name="LRPA"> F  </i>
   <i type="logical" name="LNABLA"> F  </i>
   <i type="logical" name="LVEL"> F  </i>
   <i type="int" name="KINTER">     0</i>
   <i name="CSHIFT">      0.10000000</i>
   <i name="OMEGAMAX">     -1.00000000</i>
   <i name="DEG_THRESHOLD">      0.00200000</i>
  </separator>
  <separator name="orbital magnetization" >
   <i type="logical" name="NUCIND"> F  </i>
   <v name="MAGPOS">      0.00000000      0.00000000      0.00000000</v>
   <i type="logical" name="LNICSALL"> T  </i>
   <i type="logical" name="ORBITALMAG"> F  </i>
   <i type="logical" name="LMAGBLOCH"> F  </i>
   <i type="logical" name="LCHIMAG"> F  </i>
   <i type="logical" name="LGAUGE"> T  </i>
   <i type="int" name="MAGATOM">     0</i>
   <v name="MAGDIPOL">      0.00000000      0.00000000      0.00000000</v>
   <v name="AVECCONST">      0.00000000      0.00000000      0.00000000</v>
  </separator>
  <separator name="response functions" >
   <i type="logical" name="LADDER"> F  </i>
   <i type="logical" name="LFXC"> F  </i>
   <i type="logical" name="LHARTREE"> T  </i>
   <i type="int" name="IBSE">     0</i>
   <v type="int" name="KPOINT">    -1     0     0     0</v>
   <i type="logical" name="LTCTE"> F  </i>
   <i type="logical" name="LTETE"> F  </i>
   <i type="logical" name="LTRIPLET"> F  </i>
   <i type="logical" name="LFXCEPS"> F  </i>
   <i type="logical" name="LFXHEG"> F  </i>
   <i type="int" name="NATURALO">     0</i>
   <i type="logical" name="L2ORDER"> F  </i>
   <i type="logical" name="LUSEW"> F  </i>
   <i name="ENCUTGW">     -2.00000000</i>
   <i name="ENCUTGWSOFT">     -2.00000000</i>
   <i name="ENCUTLF">     -1.00000000</i>
   <i type="int" name="LMAXMP2">    -1</i>
   <i name="SCISSOR">      0.00000000</i>
   <i type="int" name="NOMEGA">     0</i>
   <i type="int" name="NOMEGAR">     0</i>
   <i type="int" name="NBANDSGW">    -1</i>
   <i type="int" name="NBANDSO">    -1</i>
   <i type="int" name="NBANDSV">    -1</i>
   <i type="int" name="NELM">    40</i>
   <i type="int" name="NELMHF">     1</i>
   <i type="int" name="DIM">     3</i>
   <i type="int" name="ANTIRES">     0</i>
   <i name="OMEGAMAX">    -30.00000000</i>
   <i name="OMEGAMIN">    -30.00000000</i>
   <i name="OMEGATL">   -200.00000000</i>
   <i type="int" name="OMEGAGRID">     0</i>
   <i name="CSHIFT">     -0.10000000</i>
   <i type="logical" name="SELFENERGY"> F  </i>
   <i type="logical" name="LSPECTRAL"> F  </i>
   <i type="logical" name="LSPECTRALGW"> F  </i>
   <i type="logical" name="LSINGLES"> F  </i>
   <i type="logical" name="LFERMIGW"> F  </i>
   <i type="logical" name="ODDONLYGW"> F  </i>
   <i type="logical" name="EVENONLYGW"> F  </i>
   <i type="int" name="NKREDLFX">     1</i>
   <i type="int" name="NKREDLFY">     1</i>
   <i type="int" name="NKREDLFZ">     1</i>
   <i type="int" name="MAXMEM">  1800</i>
   <i type="int" name="TELESCOPE">     0</i>
   <i type="int" name="TAUPAR">     1</i>
   <i type="int" name="OMEGAPAR">    -1</i>
   <i name="LAMBDA">      1.00000000</i>
  </separator>
  <separator name="External order field" >
   <i name="OFIELD_KAPPA">      0.00000000</i>
   <v name="OFIELD_K">      0.00000000      0.00000000      0.00000000</v>
   <i name="OFIELD_Q6_NEAR">      0.00000000</i>
   <i name="OFIELD_Q6_FAR">      0.00000000</i>
   <i name="OFIELD_A">      0.00000000</i>
  </separator>
 </parameters>
 <atominfo>
  <atoms>     154 </atoms>
  <types>       4 </types>
  <array name="atoms" >
   <dimension dim="1">ion</dimension>
   <field type="string">element</field>
   <field type="int">atomtype</field>
   <set>
    <rc><c>Sr</c><c>   1</c></rc>
    <rc><c>Sr</c><c>   1</c></rc>
    <rc><c>Sr</c><c>   1</c></rc>
    <rc><c>Sr</c><c>   1</c></rc>
    <rc><c>Sr</c><c>   1</c></rc>
    <rc><c>Sr</c><c>   1</c></rc>
    <rc><c>Sr</c><c>   1</c></rc>
    <rc><c>Sr</c><c>   1</c></rc>
    <rc><c>Sr</c><c>   1</c></rc>
    <rc><c>Sr</c><c>   1</c></rc>
    <rc><c>Sr</c><c>   1</c></rc>
    <rc><c>Sr</c><c>   1</c></rc>
    <rc><c>Sr</c><c>   1</c></rc>
    <rc><c>Sr</c><c>   1</c></rc>
    <rc><c>Sr</c><c>   1</c></rc>
    <rc><c>Sr</c><c>   1</c></rc>
    <rc><c>Sr</c><c>   1</c></rc>
    <rc><c>Sr</c><c>   1</c></rc>
    <rc><c>Sr</c><c>   1</c></rc>
    <rc><c>Sr</c><c>   1</c></rc>
    <rc><c>Sr</c><c>   1</c></rc>
    <rc><c>Sr</c><c>   1</c></rc>
    <rc><c>Sr</c><c>   1</c></rc>
    <rc><c>Sr</c><c>   1</c></rc>
    <rc><c>Sr</c><c>   1</c></rc>
    <rc><c>Sr</c><c>   1</c></rc>
    <rc><c>Sr</c><c>   1</c></rc>
    <rc><c>Sr</c><c>   1</c></rc>
    <rc><c>Sr</c><c>   1</c></rc>
    <rc><c>Sr</c><c>   1</c></rc>
    <rc><c>Sr</c><c>   1</c></rc>
    <rc><c>Sr</c><c>   1</c></rc>
    <rc><c>Ti</c><c>   2</c></rc>
    <rc><c>Ti</c><c>   2</c></rc>
    <rc><c>Ti</c><c>   2</c></rc>
    <rc><c>Ti</c><c>   2</c></rc>
    <rc><c>Ti</c><c>   2</c></rc>
    <rc><c>Ti</c><c>   2</c></rc>
    <rc><c>Ti</c><c>   2</c></rc>
    <rc><c>Ti</c><c>   2</c></rc>
    <rc><c>Ti</c><c>   2</c></rc>
    <rc><c>Ti</c><c>   2</c></rc>
    <rc><c>Ti</c><c>   2</c></rc>
    <rc><c>Ti</c><c>   2</c></rc>
    <rc><c>Ti</c><c>   2</c></rc>
    <rc><c>Ti</c><c>   2</c></rc>
    <rc><c>Ti</c><c>   2</c></rc>
    <rc><c>Ti</c><c>   2</c></rc>
    <rc><c>Ti</c><c>   2</c></rc>
    <rc><c>Ti</c><c>   2</c></rc>
    <rc><c>Ti</c><c>   2</c></rc>
    <rc><c>Ti</c><c>   2</c></rc>
    <rc><c>Fe</c><c>   3</c></rc>
    <rc><c>Fe</c><c>   3</c></rc>
    <rc><c>Fe</c><c>   3</c></rc>
    <rc><c>Fe</c><c>   3</c></rc>
    <rc><c>Fe</c><c>   3</c></rc>
    <rc><c>Fe</c><c>   3</c></rc>
    <rc><c>Fe</c><c>   3</c></rc>
    <rc><c>Fe</c><c>   3</c></rc>
    <rc><c>Fe</c><c>   3</c></rc>
    <rc><c>Fe</c><c>   3</c></rc>
    <rc><c>Fe</c><c>   3</c></rc>
    <rc><c>Fe</c><c>   3</c></rc>
    <rc><c>O </c><c>   4</c></rc>
    <rc><c>O </c><c>   4</c></rc>
    <rc><c>O </c><c>   4</c></rc>
    <rc><c>O </c><c>   4</c></rc>
    <rc><c>O </c><c>   4</c></rc>
    <rc><c>O </c><c>   4</c></rc>
    <rc><c>O </c><c>   4</c></rc>
    <rc><c>O </c><c>   4</c></rc>
    <rc><c>O </c><c>   4</c></rc>
    <rc><c>O </c><c>   4</c></rc>
    <rc><c>O </c><c>   4</c></rc>
    <rc><c>O </c><c>   4</c></rc>
    <rc><c>O </c><c>   4</c></rc>
    <rc><c>O </c><c>   4</c></rc>
    <rc><c>O </c><c>   4</c></rc>
    <rc><c>O </c><c>   4</c></rc>
    <rc><c>O </c><c>   4</c></rc>
    <rc><c>O </c><c>   4</c></rc>
    <rc><c>O </c><c>   4</c></rc>
    <rc><c>O </c><c>   4</c></rc>
    <rc><c>O </c><c>   4</c></rc>
    <rc><c>O </c><c>   4</c></rc>
    <rc><c>O </c><c>   4</c></rc>
    <rc><c>O </c><c>   4</c></rc>
    <rc><c>O </c><c>   4</c></rc>
    <rc><c>O </c><c>   4</c></rc>
    <rc><c>O </c><c>   4</c></rc>
    <rc><c>O </c><c>   4</c></rc>
    <rc><c>O </c><c>   4</c></rc>
    <rc><c>O </c><c>   4</c></rc>
    <rc><c>O </c><c>   4</c></rc>
    <rc><c>O </c><c>   4</c></rc>
    <rc><c>O </c><c>   4</c></rc>
    <rc><c>O </c><c>   4</c></rc>
    <rc><c>O </c><c>   4</c></rc>
    <rc><c>O </c><c>   4</c></rc>
    <rc><c>O </c><c>   4</c></rc>
    <rc><c>O </c><c>   4</c></rc>
    <rc><c>O </c><c>   4</c></rc>
    <rc><c>O </c><c>   4</c></rc>
    <rc><c>O </c><c>   4</c></rc>
    <rc><c>O </c><c>   4</c></rc>
    <rc><c>O </c><c>   4</c></rc>
    <rc><c>O </c><c>   4</c></rc>
    <rc><c>O </c><c>   4</c></rc>
    <rc><c>O </c><c>   4</c></rc>
    <rc><c>O </c><c>   4</c></rc>
    <rc><c>O </c><c>   4</c></rc>
    <rc><c>O </c><c>   4</c></rc>
    <rc><c>O </c><c>   4</c></rc>
    <rc><c>O </c><c>   4</c></rc>
    <rc><c>O </c><c>   4</c></rc>
    <rc><c>O </c><c>   4</c></rc>
    <rc><c>O </c><c>   4</c></rc>
    <rc><c>O </c><c>   4</c></rc>
    <rc><c>O </c><c>   4</c></rc>
    <rc><c>O </c><c>   4</c></rc>
    <rc><c>O </c><c>   4</c></rc>
    <rc><c>O </c><c>   4</c></rc>
    <rc><c>O </c><c>   4</c></rc>
    <rc><c>O </c><c>   4</c></rc>
    <rc><c>O </c><c>   4</c></rc>
    <rc><c>O </c><c>   4</c></rc>
    <rc><c>O </c><c>   4</c></rc>
    <rc><c>O </c><c>   4</c></rc>
    <rc><c>O </c><c>   4</c></rc>
    <rc><c>O </c><c>   4</c></rc>
    <rc><c>O </c><c>   4</c></rc>
    <rc><c>O </c><c>   4</c></rc>
    <rc><c>O </c><c>   4</c></rc>
    <rc><c>O </c><c>   4</c></rc>
    <rc><c>O </c><c>   4</c></rc>
    <rc><c>O </c><c>   4</c></rc>
    <rc><c>O </c><c>   4</c></rc>
    <rc><c>O </c><c>   4</c></rc>
    <rc><c>O </c><c>   4</c></rc>
    <rc><c>O </c><c>   4</c></rc>
    <rc><c>O </c><c>   4</c></rc>
    <rc><c>O </c><c>   4</c></rc>
    <rc><c>O </c><c>   4</c></rc>
    <rc><c>O </c><c>   4</c></rc>
    <rc><c>O </c><c>   4</c></rc>
    <rc><c>O </c><c>   4</c></rc>
    <rc><c>O </c><c>   4</c></rc>
    <rc><c>O </c><c>   4</c></rc>
    <rc><c>O </c><c>   4</c></rc>
    <rc><c>O </c><c>   4</c></rc>
    <rc><c>O </c><c>   4</c></rc>
    <rc><c>O </c><c>   4</c></rc>
    <rc><c>O </c><c>   4</c></rc>
   </set>
  </array>
  <array name="atomtypes" >
   <dimension dim="1">type</dimension>
   <field type="int">atomspertype</field>
   <field type="string">element</field>
   <field>mass</field>
   <field>valence</field>
   <field type="string">pseudopotential</field>
   <set>
    <rc><c>  32</c><c>Sr</c><c>     87.62000000</c><c>     10.00000000</c><c>  PAW_PBE Sr_sv 07Sep2000               </c></rc>
    <rc><c>  20</c><c>Ti</c><c>     47.88000000</c><c>      4.00000000</c><c>  PAW_PBE Ti 08Apr2002                  </c></rc>
    <rc><c>  12</c><c>Fe</c><c>     55.84700000</c><c>      8.00000000</c><c>  PAW_PBE Fe 06Sep2000                  </c></rc>
    <rc><c>  90</c><c>O </c><c>     16.00000000</c><c>      6.00000000</c><c>  PAW_PBE O 08Apr2002                   </c></rc>
   </set>
  </array>
 </atominfo>
 <structure name="initialpos" >
  <crystal>
   <varray name="basis" >
    <v>      11.25667201       0.00219176       0.00085915 </v>
    <v>       0.00214714      11.28948905      -0.00398246 </v>
    <v>       0.00120788      -0.00556387      15.79995000 </v>
   </varray>
   <i name="volume">   2007.89010216 </i>
   <varray name="rec_basis" >
    <v>       0.08883621      -0.00001690      -0.00000680 </v>
    <v>      -0.00001725       0.08857798       0.00003119 </v>
    <v>      -0.00000483       0.00002233       0.06329135 </v>
   </varray>
  </crystal>
  <varray name="positions" >
   <v>       0.99917552       0.25335877       0.11418791 </v>
   <v>       0.00368466       0.24705456       0.62522477 </v>
   <v>       0.99728922       0.74030763       0.11755806 </v>
   <v>       0.99979571       0.75103861       0.62194772 </v>
   <v>       0.50064096       0.25492928       0.11663741 </v>
   <v>       0.49915648       0.26038180       0.61776384 </v>
   <v>       0.49829341       0.74142458       0.11712077 </v>
   <v>       0.49859981       0.73844780       0.62233915 </v>
   <v>       0.99988259       0.25431116       0.38375176 </v>
   <v>       0.00317684       0.24694343       0.87770360 </v>
   <v>       0.99662577       0.74035328       0.38152217 </v>
   <v>       0.99938010       0.75076566       0.87832452 </v>
   <v>       0.50209516       0.25276483       0.38180879 </v>
   <v>       0.49811287       0.26116596       0.88442782 </v>
   <v>       0.49831142       0.74422661       0.38260710 </v>
   <v>       0.49867522       0.73500624       0.87794569 </v>
   <v>       0.24761226       0.99682822       0.11494714 </v>
   <v>       0.24098922       0.99617951       0.62195898 </v>
   <v>       0.24792216       0.50888124       0.11791620 </v>
   <v>       0.24858246       0.50408810       0.62187816 </v>
   <v>       0.75306872       0.99769330       0.11579192 </v>
   <v>       0.75844537       0.99607090       0.62208763 </v>
   <v>       0.74674830       0.50808611       0.11674094 </v>
   <v>       0.74903752       0.50243166       0.62415935 </v>
   <v>       0.25359640       0.99429701       0.38460834 </v>
   <v>       0.23994389       0.99831267       0.87924189 </v>
   <v>       0.24760975       0.51196493       0.38063763 </v>
   <v>       0.24857978       0.50116694       0.88017470 </v>
   <v>       0.74621689       0.99448593       0.38439586 </v>
   <v>       0.75893365       0.99885134       0.87870041 </v>
   <v>       0.74739883       0.51130775       0.38196203 </v>
   <v>       0.74944826       0.49996112       0.87799578 </v>
   <v>       0.50159954       0.50508861       0.24856795 </v>
   <v>       0.99922926       0.99935956       0.49630497 </v>
   <v>       0.75048259       0.74704925       0.25110658 </v>
   <v>       0.49856606       0.50258211       0.49869584 </v>
   <v>       0.49845942       0.00403001       0.50557489 </v>
   <v>       0.74990970       0.24860464       0.99856306 </v>
   <v>       0.24785318       0.24853142       0.99992974 </v>
   <v>       0.00020469       0.99903733       0.75106197 </v>
   <v>       0.24691290       0.74927952       0.99949145 </v>
   <v>       0.25228156       0.74732865       0.25123324 </v>
   <v>       0.74961378       0.24785262       0.50150118 </v>
   <v>       0.99835714       0.50217025       0.50083127 </v>
   <v>       0.24617964       0.74746286       0.74848075 </v>
   <v>       0.75193714       0.74857754       0.74847542 </v>
   <v>       0.49905760       0.49155835       0.75168910 </v>
   <v>       0.99993716       0.50194519       0.75228394 </v>
   <v>       0.75001944       0.74923168       0.99892157 </v>
   <v>       0.24950841       0.24793174       0.50005583 </v>
   <v>       0.00153564       0.50305600       0.24831251 </v>
   <v>       0.49819975       0.00505010       0.99742686 </v>
   <v>       0.99827982       0.49922506       0.99942823 </v>
   <v>       0.75876167       0.28183728       0.25008208 </v>
   <v>       0.74825664       0.75067421       0.50108651 </v>
   <v>       0.49857361       0.49989772       0.00126964 </v>
   <v>       0.00794598       0.96850248       0.25136715 </v>
   <v>       0.24847661       0.75063933       0.50043549 </v>
   <v>       0.76537561       0.26038318       0.75012366 </v>
   <v>       0.24159162       0.26490184       0.75014985 </v>
   <v>       0.99871874       0.00143707       0.00178134 </v>
   <v>       0.50875270       0.96794456       0.24908154 </v>
   <v>       0.50378655       0.97197788       0.75081549 </v>
   <v>       0.25768048       0.28185741       0.25019990 </v>
   <v>       0.98990176       0.03388988       0.14363864 </v>
   <v>       0.00063123       0.99642146       0.62226660 </v>
   <v>       0.99999000       0.50392847       0.12588974 </v>
   <v>       0.99674323       0.49337966       0.62444413 </v>
   <v>       0.49343368       0.02282588       0.13550189 </v>
   <v>       0.49354475       0.03136576       0.63687711 </v>
   <v>       0.50119819       0.50646016       0.12643011 </v>
   <v>       0.49508706       0.49198884       0.62404854 </v>
   <v>       0.99255392       0.02691837       0.36405319 </v>
   <v>       0.99992311       0.99645776       0.87435144 </v>
   <v>       0.99932665       0.50234335       0.37484146 </v>
   <v>       0.99850019       0.49659055       0.87459048 </v>
   <v>       0.49482979       0.02337722       0.36273439 </v>
   <v>       0.49263493       0.03171591       0.86329268 </v>
   <v>       0.50026290       0.50688379       0.37464822 </v>
   <v>       0.49664232       0.49397961       0.87455965 </v>
   <v>       0.24093890       0.22118015       0.36143139 </v>
   <v>       0.25577793       0.24357972       0.87484133 </v>
   <v>       0.25525560       0.74769103       0.37473668 </v>
   <v>       0.24493711       0.75422601       0.87469062 </v>
   <v>       0.74459670       0.22077159       0.36175149 </v>
   <v>       0.73956752       0.24362244       0.87343975 </v>
   <v>       0.74474110       0.74733380       0.37489648 </v>
   <v>       0.74940386       0.75500485       0.87407454 </v>
   <v>       0.24221043       0.22281742       0.13880218 </v>
   <v>       0.25670991       0.24447167       0.62394392 </v>
   <v>       0.25463916       0.74850700       0.12524034 </v>
   <v>       0.24568965       0.75223038       0.62513246 </v>
   <v>       0.74235421       0.22268189       0.13849762 </v>
   <v>       0.74054588       0.24546367       0.62527065 </v>
   <v>       0.74426746       0.74711942       0.12488821 </v>
   <v>       0.74978592       0.75379463       0.62570750 </v>
   <v>       0.15121472       0.40810039       0.25069334 </v>
   <v>       0.41270047       0.34510371       0.25051253 </v>
   <v>       0.65075788       0.40687797       0.25139401 </v>
   <v>       0.91343236       0.34480436       0.24985861 </v>
   <v>       0.10394666       0.65078149       0.25041841 </v>
   <v>       0.35236091       0.59958431       0.24979649 </v>
   <v>       0.60172768       0.65135160       0.25058646 </v>
   <v>       0.85221263       0.60107816       0.24998907 </v>
   <v>       0.16340244       0.90571342       0.25046729 </v>
   <v>       0.40221203       0.84277684       0.24997101 </v>
   <v>       0.66387898       0.90672059       0.24924834 </v>
   <v>       0.90045900       0.84241261       0.25035441 </v>
   <v>       0.13532741       0.11430641       0.50069755 </v>
   <v>       0.38611610       0.13784406       0.49646835 </v>
   <v>       0.63406201       0.11495541       0.50000875 </v>
   <v>       0.88473388       0.13626889       0.50254740 </v>
   <v>       0.11740708       0.36308831       0.49780750 </v>
   <v>       0.36423273       0.38069061       0.49070790 </v>
   <v>       0.61717065       0.36487349       0.49380747 </v>
   <v>       0.86304770       0.37956653       0.49362915 </v>
   <v>       0.12951302       0.61574752       0.50126717 </v>
   <v>       0.38194080       0.63128380       0.50272236 </v>
   <v>       0.62914667       0.61626661       0.50434611 </v>
   <v>       0.88100326       0.63002486       0.50160113 </v>
   <v>       0.11434048       0.87053276       0.49025184 </v>
   <v>       0.36862606       0.89066610       0.50389639 </v>
   <v>       0.61113383       0.87341945       0.50169274 </v>
   <v>       0.86809942       0.88595164       0.49411821 </v>
   <v>       0.12037530       0.13445668       0.74871515 </v>
   <v>       0.85774075       0.10743077       0.74851322 </v>
   <v>       0.14432947       0.39950411       0.74915488 </v>
   <v>       0.39777359       0.34302358       0.75011727 </v>
   <v>       0.63894266       0.38349209       0.74905697 </v>
   <v>       0.89967806       0.35711301       0.75045138 </v>
   <v>       0.10507602       0.64317359       0.74915527 </v>
   <v>       0.35665086       0.60455304       0.75008929 </v>
   <v>       0.60886197       0.63711286       0.74901709 </v>
   <v>       0.85691919       0.60688629       0.75001511 </v>
   <v>       0.14201419       0.89117223       0.74907946 </v>
   <v>       0.38983144       0.85410900       0.74966044 </v>
   <v>       0.65019227       0.89695405       0.75003681 </v>
   <v>       0.89418333       0.85645693       0.74886469 </v>
   <v>       0.13349382       0.11607882       0.99930136 </v>
   <v>       0.38385716       0.13500954       0.00301726 </v>
   <v>       0.63195161       0.11466464       0.00028638 </v>
   <v>       0.88125304       0.13399645       0.99776893 </v>
   <v>       0.11949269       0.36434002       0.00163274 </v>
   <v>       0.36472220       0.37856160       0.00843392 </v>
   <v>       0.61926281       0.36505634       0.00591563 </v>
   <v>       0.86341821       0.37812183       0.00500346 </v>
   <v>       0.13105190       0.62054483       0.99906668 </v>
   <v>       0.37895105       0.63379771       0.99732810 </v>
   <v>       0.63019103       0.62065513       0.99592407 </v>
   <v>       0.87793000       0.63247531       0.99824374 </v>
   <v>       0.11666780       0.87004929       0.00885304 </v>
   <v>       0.36826591       0.88815722       0.99681891 </v>
   <v>       0.61201660       0.87255010       0.99859264 </v>
   <v>       0.86699926       0.88259640       0.00511567 </v>
  </varray>
 </structure>
 <calculation>
  <scstep>
   <time name="dav">  299.91  299.95</time>
   <time name="total">  303.61  303.75</time>
   <energy>
    <i name="alphaZ">   5614.85392036 </i>
    <i name="ewald"> -61612.19688085 </i>
    <i name="hartreedc"> -16934.47503395 </i>
    <i name="XCdc">   3074.85324557 </i>
    <i name="pawpsdc"> 114297.10228737 </i>
    <i name="pawaedc">-113349.09685340 </i>
    <i name="eentropy">     -0.00000000 </i>
    <i name="bandstr">  -7097.59022291 </i>
    <i name="atom">  74916.81196153 </i>
    <i name="e_fr_energy">  -1089.73757627 </i>
    <i name="e_wo_entrp">  -1089.73757627 </i>
    <i name="e_0_energy">  -1089.73757627 </i>
   </energy>
  </scstep>
  <scstep>
   <time name="diag">   33.27   33.29</time>
   <time name="diis">   33.59   33.59</time>
   <time name="orth">   18.92   18.92</time>
   <time name="total">   89.55   89.63</time>
   <energy>
    <i name="e_fr_energy">  -1089.73757422 </i>
    <i name="e_wo_entrp">  -1089.73757422 </i>
    <i name="e_0_energy">  -1089.73757422 </i>
   </energy>
  </scstep>
  <scstep>
   <time name="diag">   33.33   33.33</time>
   <time name="diis">   31.41   31.41</time>
   <time name="orth">   18.91   18.91</time>
   <time name="total">   87.41   87.46</time>
   <energy>
    <i name="e_fr_energy">  -1089.73757392 </i>
    <i name="e_wo_entrp">  -1089.73757392 </i>
    <i name="e_0_energy">  -1089.73757392 </i>
   </energy>
  </scstep>
  <scstep>
   <time name="diag">   33.32   33.32</time>
   <time name="diis">   30.24   30.24</time>
   <time name="orth">   18.93   18.93</time>
   <time name="total">   86.25   86.26</time>
   <energy>
    <i name="e_fr_energy">  -1089.73757636 </i>
    <i name="e_wo_entrp">  -1089.73757636 </i>
    <i name="e_0_energy">  -1089.73757636 </i>
   </energy>
  </scstep>
  <scstep>
   <time name="diag">   33.31   33.33</time>
   <time name="diis">   29.65   29.67</time>
   <time name="orth">   18.93   18.94</time>
   <time name="total">   85.65   85.79</time>
   <energy>
    <i name="e_fr_energy">  -1089.73757850 </i>
    <i name="e_wo_entrp">  -1089.73757850 </i>
    <i name="e_0_energy">  -1089.73757850 </i>
   </energy>
  </scstep>
  <scstep>
   <time name="diag">   33.29   33.31</time>
   <time name="diis">   27.86   27.88</time>
   <time name="orth">   18.93   18.95</time>
   <time name="total">   83.85   84.00</time>
   <energy>
    <i name="e_fr_energy">  -1089.73757913 </i>
    <i name="e_wo_entrp">  -1089.73757913 </i>
    <i name="e_0_energy">  -1089.73757913 </i>
   </energy>
  </scstep>
  <scstep>
   <time name="diag">   33.33   33.35</time>
   <time name="diis">   26.19   26.23</time>
   <time name="orth">   18.94   18.96</time>
   <time name="total">   82.17   82.32</time>
   <energy>
    <i name="e_fr_energy">  -1089.73757931 </i>
    <i name="e_wo_entrp">  -1089.73757931 </i>
    <i name="e_0_energy">  -1089.73757931 </i>
   </energy>
  </scstep>
  <scstep>
   <time name="diag">   33.25   33.29</time>
   <time name="diis">   25.17   25.17</time>
   <time name="orth">   18.95   18.95</time>
   <time name="total">   77.96   78.07</time>
   <energy>
    <i name="alphaZ">   5614.85392036 </i>
    <i name="ewald"> -61612.19688085 </i>
    <i name="hartreedc"> -16934.46164300 </i>
    <i name="XCdc">   3074.84989221 </i>
    <i name="pawpsdc"> 114291.06188845 </i>
    <i name="pawaedc">-113343.04648774 </i>
    <i name="eentropy">     -0.00000000 </i>
    <i name="bandstr">  -7097.61023041 </i>
    <i name="atom">  74916.81196153 </i>
    <i name="e_fr_energy">  -1089.73757945 </i>
    <i name="e_wo_entrp">  -1089.73757945 </i>
    <i name="e_0_energy">  -1089.73757945 </i>
   </energy>
  </scstep>
  <structure>
   <crystal>
    <varray name="basis" >
     <v>      11.25667201       0.00219176       0.00085915 </v>
     <v>       0.00214714      11.28948905      -0.00398246 </v>
     <v>       0.00120788      -0.00556387      15.79995000 </v>
    </varray>
    <i name="volume">   2007.89010216 </i>
    <varray name="rec_basis" >
     <v>       0.08883621      -0.00001690      -0.00000680 </v>
     <v>      -0.00001725       0.08857798       0.00003119 </v>
     <v>      -0.00000483       0.00002233       0.06329135 </v>
    </varray>
   </crystal>
   <varray name="positions" >
    <v>       0.99917552       0.25335877       0.11418791 </v>
    <v>       0.00368466       0.24705456       0.62522477 </v>
    <v>       0.99728922       0.74030763       0.11755806 </v>
    <v>       0.99979571       0.75103861       0.62194772 </v>
    <v>       0.50064096       0.25492928       0.11663741 </v>
    <v>       0.49915648       0.26038180       0.61776384 </v>
    <v>       0.49829341       0.74142458       0.11712077 </v>
    <v>       0.49859981       0.73844780       0.62233915 </v>
    <v>       0.99988259       0.25431116       0.38375176 </v>
    <v>       0.00317684       0.24694343       0.87770360 </v>
    <v>       0.99662577       0.74035328       0.38152217 </v>
    <v>       0.99938010       0.75076566       0.87832452 </v>
    <v>       0.50209516       0.25276483       0.38180879 </v>
    <v>       0.49811287       0.26116596       0.88442782 </v>
    <v>       0.49831142       0.74422661       0.38260710 </v>
    <v>       0.49867522       0.73500624       0.87794569 </v>
    <v>       0.24761226       0.99682822       0.11494714 </v>
    <v>       0.24098922       0.99617951       0.62195898 </v>
    <v>       0.24792216       0.50888124       0.11791620 </v>
    <v>       0.24858246       0.50408810       0.62187816 </v>
    <v>       0.75306872       0.99769330       0.11579192 </v>
    <v>       0.75844537       0.99607090       0.62208763 </v>
    <v>       0.74674830       0.50808611       0.11674094 </v>
    <v>       0.74903752       0.50243166       0.62415935 </v>
    <v>       0.25359640       0.99429701       0.38460834 </v>
    <v>       0.23994389       0.99831267       0.87924189 </v>
    <v>       0.24760975       0.51196493       0.38063763 </v>
    <v>       0.24857978       0.50116694       0.88017470 </v>
    <v>       0.74621689       0.99448593       0.38439586 </v>
    <v>       0.75893365       0.99885134       0.87870041 </v>
    <v>       0.74739883       0.51130775       0.38196203 </v>
    <v>       0.74944826       0.49996112       0.87799578 </v>
    <v>       0.50159954       0.50508861       0.24856795 </v>
    <v>       0.99922926       0.99935956       0.49630497 </v>
    <v>       0.75048259       0.74704925       0.25110658 </v>
    <v>       0.49856606       0.50258211       0.49869584 </v>
    <v>       0.49845942       0.00403001       0.50557489 </v>
    <v>       0.74990970       0.24860464       0.99856306 </v>
    <v>       0.24785318       0.24853142       0.99992974 </v>
    <v>       0.00020469       0.99903733       0.75106197 </v>
    <v>       0.24691290       0.74927952       0.99949145 </v>
    <v>       0.25228156       0.74732865       0.25123324 </v>
    <v>       0.74961378       0.24785262       0.50150118 </v>
    <v>       0.99835714       0.50217025       0.50083127 </v>
    <v>       0.24617964       0.74746286       0.74848075 </v>
    <v>       0.75193714       0.74857754       0.74847542 </v>
    <v>       0.49905760       0.49155835       0.75168910 </v>
    <v>       0.99993716       0.50194519       0.75228394 </v>
    <v>       0.75001944       0.74923168       0.99892157 </v>
    <v>       0.24950841       0.24793174       0.50005583 </v>
    <v>       0.00153564       0.50305600       0.24831251 </v>
    <v>       0.49819975       0.00505010       0.99742686 </v>
    <v>       0.99827982       0.49922506       0.99942823 </v>
    <v>       0.75876167       0.28183728       0.25008208 </v>
    <v>       0.74825664       0.75067421       0.50108651 </v>
    <v>       0.49857361       0.49989772       0.00126964 </v>
    <v>       0.00794598       0.96850248       0.25136715 </v>
    <v>       0.24847661       0.75063933       0.50043549 </v>
    <v>       0.76537561       0.26038318       0.75012366 </v>
    <v>       0.24159162       0.26490184       0.75014985 </v>
    <v>       0.99871874       0.00143707       0.00178134 </v>
    <v>       0.50875270       0.96794456       0.24908154 </v>
    <v>       0.50378655       0.97197788       0.75081549 </v>
    <v>       0.25768048       0.28185741       0.25019990 </v>
    <v>       0.98990176       0.03388988       0.14363864 </v>
    <v>       0.00063123       0.99642146       0.62226660 </v>
    <v>       0.99999000       0.50392847       0.12588974 </v>
    <v>       0.99674323       0.49337966       0.62444413 </v>
    <v>       0.49343368       0.02282588       0.13550189 </v>
    <v>       0.49354475       0.03136576       0.63687711 </v>
    <v>       0.50119819       0.50646016       0.12643011 </v>
    <v>       0.49508706       0.49198884       0.62404854 </v>
    <v>       0.99255392       0.02691837       0.36405319 </v>
    <v>       0.99992311       0.99645776       0.87435144 </v>
    <v>       0.99932665       0.50234335       0.37484146 </v>
    <v>       0.99850019       0.49659055       0.87459048 </v>
    <v>       0.49482979       0.02337722       0.36273439 </v>
    <v>       0.49263493       0.03171591       0.86329268 </v>
    <v>       0.50026290       0.50688379       0.37464822 </v>
    <v>       0.49664232       0.49397961       0.87455965 </v>
    <v>       0.24093890       0.22118015       0.36143139 </v>
    <v>       0.25577793       0.24357972       0.87484133 </v>
    <v>       0.25525560       0.74769103       0.37473668 </v>
    <v>       0.24493711       0.75422601       0.87469062 </v>
    <v>       0.74459670       0.22077159       0.36175149 </v>
    <v>       0.73956752       0.24362244       0.87343975 </v>
    <v>       0.74474110       0.74733380       0.37489648 </v>
    <v>       0.74940386       0.75500485       0.87407454 </v>
    <v>       0.24221043       0.22281742       0.13880218 </v>
    <v>       0.25670991       0.24447167       0.62394392 </v>
    <v>       0.25463916       0.74850700       0.12524034 </v>
    <v>       0.24568965       0.75223038       0.62513246 </v>
    <v>       0.74235421       0.22268189       0.13849762 </v>
    <v>       0.74054588       0.24546367       0.62527065 </v>
    <v>       0.74426746       0.74711942       0.12488821 </v>
    <v>       0.74978592       0.75379463       0.62570750 </v>
    <v>       0.15121472       0.40810039       0.25069334 </v>
    <v>       0.41270047       0.34510371       0.25051253 </v>
    <v>       0.65075788       0.40687797       0.25139401 </v>
    <v>       0.91343236       0.34480436       0.24985861 </v>
    <v>       0.10394666       0.65078149       0.25041841 </v>
    <v>       0.35236091       0.59958431       0.24979649 </v>
    <v>       0.60172768       0.65135160       0.25058646 </v>
    <v>       0.85221263       0.60107816       0.24998907 </v>
    <v>       0.16340244       0.90571342       0.25046729 </v>
    <v>       0.40221203       0.84277684       0.24997101 </v>
    <v>       0.66387898       0.90672059       0.24924834 </v>
    <v>       0.90045900       0.84241261       0.25035441 </v>
    <v>       0.13532741       0.11430641       0.50069755 </v>
    <v>       0.38611610       0.13784406       0.49646835 </v>
    <v>       0.63406201       0.11495541       0.50000875 </v>
    <v>       0.88473388       0.13626889       0.50254740 </v>
    <v>       0.11740708       0.36308831       0.49780750 </v>
    <v>       0.36423273       0.38069061       0.49070790 </v>
    <v>       0.61717065       0.36487349       0.49380747 </v>
    <v>       0.86304770       0.37956653       0.49362915 </v>
    <v>       0.12951302       0.61574752       0.50126717 </v>
    <v>       0.38194080       0.63128380       0.50272236 </v>
    <v>       0.62914667       0.61626661       0.50434611 </v>
    <v>       0.88100326       0.63002486       0.50160113 </v>
    <v>       0.11434048       0.87053276       0.49025184 </v>
    <v>       0.36862606       0.89066610       0.50389639 </v>
    <v>       0.61113383       0.87341945       0.50169274 </v>
    <v>       0.86809942       0.88595164       0.49411821 </v>
    <v>       0.12037530       0.13445668       0.74871515 </v>
    <v>       0.85774075       0.10743077       0.74851322 </v>
    <v>       0.14432947       0.39950411       0.74915488 </v>
    <v>       0.39777359       0.34302358       0.75011727 </v>
    <v>       0.63894266       0.38349209       0.74905697 </v>
    <v>       0.89967806       0.35711301       0.75045138 </v>
    <v>       0.10507602       0.64317359       0.74915527 </v>
    <v>       0.35665086       0.60455304       0.75008929 </v>
    <v>       0.60886197       0.63711286       0.74901709 </v>
    <v>       0.85691919       0.60688629       0.75001511 </v>
    <v>       0.14201419       0.89117223       0.74907946 </v>
    <v>       0.38983144       0.85410900       0.74966044 </v>
    <v>       0.65019227       0.89695405       0.75003681 </v>
    <v>       0.89418333       0.85645693       0.74886469 </v>
    <v>       0.13349382       0.11607882       0.99930136 </v>
    <v>       0.38385716       0.13500954       0.00301726 </v>
    <v>       0.63195161       0.11466464       0.00028638 </v>
    <v>       0.88125304       0.13399645       0.99776893 </v>
    <v>       0.11949269       0.36434002       0.00163274 </v>
    <v>       0.36472220       0.37856160       0.00843392 </v>
    <v>       0.61926281       0.36505634       0.00591563 </v>
    <v>       0.86341821       0.37812183       0.00500346 </v>
    <v>       0.13105190       0.62054483       0.99906668 </v>
    <v>       0.37895105       0.63379771       0.99732810 </v>
    <v>       0.63019103       0.62065513       0.99592407 </v>
    <v>       0.87793000       0.63247531       0.99824374 </v>
    <v>       0.11666780       0.87004929       0.00885304 </v>
    <v>       0.36826591       0.88815722       0.99681891 </v>
    <v>       0.61201660       0.87255010       0.99859264 </v>
    <v>       0.86699926       0.88259640       0.00511567 </v>
   </varray>
  </structure>
  <varray name="forces" >
   <v>      -0.00649139       0.01312705       0.03174518 </v>
   <v>      -0.00252801       0.01414235       0.01184644 </v>
   <v>      -0.00474105       0.00719922       0.03530884 </v>
   <v>      -0.01644879      -0.00646865      -0.00065201 </v>
   <v>      -0.01220880       0.02735104       0.00766492 </v>
   <v>      -0.01060755      -0.00284794       0.00086656 </v>
   <v>       0.01138673       0.00528015       0.01210899 </v>
   <v>      -0.02564552      -0.01146965       0.01560796 </v>
   <v>      -0.00878610       0.00574750      -0.03330260 </v>
   <v>      -0.00292436      -0.00482875      -0.01369207 </v>
   <v>      -0.00959638       0.00882812      -0.02062868 </v>
   <v>      -0.01223579       0.01795488      -0.00926352 </v>
   <v>      -0.00506967       0.01869921      -0.02020021 </v>
   <v>      -0.01658163      -0.03879912       0.00037342 </v>
   <v>       0.00501719       0.00595959      -0.01862454 </v>
   <v>      -0.01174080       0.02862356      -0.00965956 </v>
   <v>      -0.00212407      -0.01481656       0.02402013 </v>
   <v>      -0.01617580      -0.01054420       0.00097940 </v>
   <v>       0.00575844      -0.00576880       0.02935304 </v>
   <v>      -0.00577115      -0.00882098      -0.01089204 </v>
   <v>      -0.00330003      -0.01301877       0.00182265 </v>
   <v>       0.01083841       0.00091304       0.00775778 </v>
   <v>       0.00767343       0.00396500       0.03832642 </v>
   <v>      -0.01066976      -0.01291641       0.00361542 </v>
   <v>      -0.02288811      -0.00621464      -0.03381867 </v>
   <v>      -0.01574491      -0.00888409       0.00728079 </v>
   <v>       0.00449545      -0.00739282      -0.02127457 </v>
   <v>      -0.00676945      -0.00620433      -0.01214747 </v>
   <v>       0.01243815      -0.01571379      -0.01351616 </v>
   <v>       0.00656734       0.01018293      -0.00508557 </v>
   <v>       0.01175957       0.00263653      -0.03263295 </v>
   <v>      -0.02746996      -0.01230866      -0.01868871 </v>
   <v>      -0.01683973      -0.00954149       0.00458779 </v>
   <v>      -0.00254898      -0.02698961      -0.00132367 </v>
   <v>      -0.00871575      -0.01279070      -0.00335805 </v>
   <v>      -0.02566921      -0.02561398       0.04892616 </v>
   <v>       0.00735218      -0.02731791      -0.01149054 </v>
   <v>      -0.03021856      -0.03007582      -0.02021112 </v>
   <v>       0.02716519       0.00373503      -0.01260283 </v>
   <v>       0.00501849       0.07004968      -0.03233488 </v>
   <v>       0.02569907       0.05304824       0.01596788 </v>
   <v>      -0.03980196      -0.00504968      -0.02798098 </v>
   <v>       0.00328959       0.03287624      -0.00980924 </v>
   <v>      -0.00578035      -0.02886095       0.04630816 </v>
   <v>       0.04291512       0.01279537       0.01848733 </v>
   <v>      -0.04335231      -0.01184360       0.03158978 </v>
   <v>       0.01295596       0.02764320      -0.09590186 </v>
   <v>      -0.00806967      -0.06203538      -0.07729691 </v>
   <v>      -0.06650682       0.08656977      -0.00052040 </v>
   <v>      -0.02268322       0.06167922       0.00390848 </v>
   <v>      -0.04310844      -0.00446326       0.04176912 </v>
   <v>       0.00631449      -0.04599681       0.01775340 </v>
   <v>      -0.00018120      -0.01043589       0.00992643 </v>
   <v>       0.01649095      -0.02891385       0.02018272 </v>
   <v>       0.00171484      -0.01021913      -0.00083910 </v>
   <v>      -0.01000609      -0.00949538       0.00995119 </v>
   <v>       0.01388050      -0.00103624      -0.00007399 </v>
   <v>      -0.00423112      -0.01196059      -0.01130486 </v>
   <v>       0.05688426       0.00863667       0.00037769 </v>
   <v>      -0.05135812       0.02940039       0.00348733 </v>
   <v>      -0.00252934      -0.00411604      -0.00830534 </v>
   <v>       0.01364761      -0.00625593      -0.01421871 </v>
   <v>       0.00434945      -0.02961502       0.01532603 </v>
   <v>       0.00830411      -0.01217724       0.01192130 </v>
   <v>       0.01535115      -0.01185332      -0.03126495 </v>
   <v>       0.00075113       0.03585491      -0.01834969 </v>
   <v>      -0.00479952       0.01052943      -0.03952189 </v>
   <v>       0.00685520       0.03256446       0.01050397 </v>
   <v>       0.01648848      -0.01356931       0.00907525 </v>
   <v>      -0.01250976       0.00539032       0.03222829 </v>
   <v>      -0.00241091      -0.01035155      -0.00023854 </v>
   <v>      -0.00530322       0.01994198       0.01690214 </v>
   <v>      -0.00019325       0.02277257       0.01018872 </v>
   <v>       0.01073287       0.03490518       0.01067110 </v>
   <v>       0.00607351       0.01314005      -0.00877548 </v>
   <v>       0.00844012       0.03504917       0.05305585 </v>
   <v>       0.02215618      -0.00248730      -0.00742296 </v>
   <v>      -0.00463783      -0.00742523      -0.04734249 </v>
   <v>      -0.00262597       0.00545949      -0.00379637 </v>
   <v>      -0.00948630       0.01612892       0.03948015 </v>
   <v>       0.01844870       0.00246549      -0.00503706 </v>
   <v>      -0.00088520      -0.00887737      -0.00771970 </v>
   <v>      -0.01112828      -0.00254402       0.00236782 </v>
   <v>      -0.00972766      -0.02719665      -0.01252555 </v>
   <v>      -0.00565154      -0.00331408      -0.00448214 </v>
   <v>      -0.00247814      -0.02179055      -0.01544839 </v>
   <v>      -0.00187296       0.01829246       0.01750855 </v>
   <v>       0.01126375      -0.03376744      -0.00067427 </v>
   <v>       0.00856555       0.01221625       0.00108172 </v>
   <v>       0.00259130      -0.01264727       0.01103856 </v>
   <v>      -0.02000779      -0.01409864      -0.01514977 </v>
   <v>      -0.01012375      -0.01133280       0.01069390 </v>
   <v>       0.00405440       0.01537471      -0.00819360 </v>
   <v>       0.00791915      -0.02639083       0.01376730 </v>
   <v>       0.02020735       0.01342867      -0.02820308 </v>
   <v>       0.01185262      -0.02310432      -0.00613534 </v>
   <v>      -0.00987940       0.02626400      -0.00725107 </v>
   <v>       0.04026354       0.01171162      -0.00061216 </v>
   <v>      -0.04003902       0.02881328      -0.01071864 </v>
   <v>       0.03564560       0.00909055      -0.00744915 </v>
   <v>      -0.00689001      -0.00559544       0.00316456 </v>
   <v>       0.00493466      -0.00969975      -0.00123740 </v>
   <v>      -0.00234770       0.00452005      -0.00106023 </v>
   <v>       0.02390244      -0.01004346       0.00565085 </v>
   <v>       0.02843972      -0.01482291       0.00224330 </v>
   <v>       0.01538378       0.00457656       0.00610604 </v>
   <v>       0.01593649       0.03904362      -0.00438810 </v>
   <v>      -0.00321036      -0.01897140      -0.00726896 </v>
   <v>      -0.03068512       0.02679011      -0.00370729 </v>
   <v>      -0.02419471      -0.04731391       0.00422124 </v>
   <v>      -0.03919152       0.01401265       0.01243227 </v>
   <v>      -0.03018373      -0.02839679      -0.01397939 </v>
   <v>       0.02065060      -0.01214246      -0.00187579 </v>
   <v>       0.01561545      -0.04432960       0.01586024 </v>
   <v>       0.01176822      -0.01973798       0.01765240 </v>
   <v>       0.01450518      -0.03760851       0.01962557 </v>
   <v>       0.01278045       0.01142303       0.01126789 </v>
   <v>      -0.01584760       0.01998184       0.00441935 </v>
   <v>       0.02088564       0.02430388       0.00501617 </v>
   <v>      -0.00560126       0.02162786       0.00145269 </v>
   <v>       0.03921536       0.01408826       0.04678552 </v>
   <v>       0.02735477       0.00314736       0.00658207 </v>
   <v>       0.00900793       0.02187309       0.01301628 </v>
   <v>       0.00906488      -0.00218472       0.03707782 </v>
   <v>       0.02415015       0.02876602       0.00755004 </v>
   <v>      -0.02353889       0.00537791      -0.00212425 </v>
   <v>       0.02338778       0.01318442       0.01071446 </v>
   <v>       0.02616681      -0.02774746      -0.00266578 </v>
   <v>       0.02078851      -0.00914051       0.00819497 </v>
   <v>      -0.01241862      -0.01385516       0.01371867 </v>
   <v>      -0.01220704      -0.00200533       0.00669744 </v>
   <v>      -0.02066090      -0.00674270       0.00838781 </v>
   <v>       0.01579871       0.00053225       0.00601124 </v>
   <v>       0.00659498       0.00054977       0.01104271 </v>
   <v>       0.01621069      -0.02935442       0.00597750 </v>
   <v>       0.02196206       0.01101300       0.00475544 </v>
   <v>      -0.00409793       0.03722646      -0.00157809 </v>
   <v>      -0.00935046      -0.02273259       0.01156642 </v>
   <v>      -0.04380346       0.01952794       0.00659891 </v>
   <v>      -0.03054597      -0.02196254      -0.00542212 </v>
   <v>      -0.01506075       0.03346995      -0.00449935 </v>
   <v>      -0.01446459      -0.02860928       0.01624123 </v>
   <v>      -0.02786815       0.05083210       0.00912198 </v>
   <v>       0.03295554      -0.01363203      -0.02759536 </v>
   <v>       0.00882779       0.00147884      -0.03373163 </v>
   <v>       0.06267928       0.02486259      -0.02711999 </v>
   <v>      -0.04255568      -0.05045616      -0.00761495 </v>
   <v>       0.00042281      -0.01968495      -0.01202850 </v>
   <v>       0.00287204      -0.00298248      -0.01688701 </v>
   <v>       0.04827931      -0.03408360      -0.00663018 </v>
   <v>       0.03606211       0.01040748      -0.02781150 </v>
   <v>       0.01338625      -0.00240058      -0.00055685 </v>
   <v>       0.01539208       0.01903000      -0.00989073 </v>
   <v>      -0.00835464      -0.01927453       0.00077242 </v>
  </varray>
  <varray name="stress" >
   <v>      -0.32378114       0.12407924      -0.05448043 </v>
   <v>       0.12407956       0.24974382      -0.01155210 </v>
   <v>      -0.05447999      -0.01155188       0.12936723 </v>
  </varray>
  <energy>
   <i name="e_fr_energy">  -1089.73757945 </i>
   <i name="e_wo_entrp">  -1089.73757945 </i>
   <i name="e_0_energy">     -0.00000000 </i>
  </energy>
  <time name="totalsc"> 1049.26 1051.88</time>
 </calculation>
 <calculation>
  <scstep>
   <time name="dav">  286.01  286.02</time>
   <time name="total">  289.75  289.83</time>
   <energy>
    <i name="alphaZ">   5614.73205141 </i>
    <i name="ewald"> -61611.46974555 </i>
    <i name="hartreedc"> -16934.92356690 </i>
    <i name="XCdc">   3074.82422650 </i>
    <i name="pawpsdc"> 114291.04155463 </i>
    <i name="pawaedc">-113343.02600875 </i>
    <i name="eentropy">     -0.00000000 </i>
    <i name="bandstr">  -7097.72834122 </i>
    <i name="atom">  74916.81196153 </i>
    <i name="e_fr_energy">  -1089.73786835 </i>
    <i name="e_wo_entrp">  -1089.73786835 </i>
    <i name="e_0_energy">  -1089.73786835 </i>
   </energy>
  </scstep>
  <scstep>
   <time name="diag">   33.29   33.31</time>
   <time name="diis">   52.24   52.27</time>
   <time name="orth">   18.95   18.95</time>
   <time name="total">  108.22  108.30</time>
   <energy>
    <i name="e_fr_energy">  -1089.74186749 </i>
    <i name="e_wo_entrp">  -1089.74186749 </i>
    <i name="e_0_energy">  -1089.74186749 </i>
   </energy>
  </scstep>
  <scstep>
   <time name="diag">   33.33   33.35</time>
   <time name="diis">   55.18   55.19</time>
   <time name="orth">   19.01   19.01</time>
   <time name="total">  111.26  111.33</time>
   <energy>
    <i name="e_fr_energy">  -1089.74189007 </i>
    <i name="e_wo_entrp">  -1089.74189007 </i>
    <i name="e_0_energy">  -1089.74189007 </i>
   </energy>
  </scstep>
  <scstep>
   <time name="diag">   33.31   33.33</time>
   <time name="diis">   48.11   48.12</time>
   <time name="orth">   18.97   18.97</time>
   <time name="total">  104.14  104.26</time>
   <energy>
    <i name="e_fr_energy">  -1089.74147233 </i>
    <i name="e_wo_entrp">  -1089.74147233 </i>
    <i name="e_0_energy">  -1089.74147233 </i>
   </energy>
  </scstep>
  <scstep>
   <time name="diag">   33.29   33.32</time>
   <time name="diis">   45.49   45.51</time>
   <time name="orth">   18.96   18.96</time>
   <time name="total">  101.48  101.63</time>
   <energy>
    <i name="e_fr_energy">  -1089.74131133 </i>
    <i name="e_wo_entrp">  -1089.74131133 </i>
    <i name="e_0_energy">  -1089.74131133 </i>
   </energy>
  </scstep>
  <scstep>
   <time name="diag">   33.33   33.33</time>
   <time name="diis">   33.03   33.05</time>
   <time name="orth">   19.03   19.03</time>
   <time name="total">   89.15   89.20</time>
   <energy>
    <i name="e_fr_energy">  -1089.74130916 </i>
    <i name="e_wo_entrp">  -1089.74130916 </i>
    <i name="e_0_energy">  -1089.74130916 </i>
   </energy>
  </scstep>
  <scstep>
   <time name="diag">   33.36   33.37</time>
   <time name="diis">   32.20   32.21</time>
   <time name="orth">   19.01   19.01</time>
   <time name="total">   88.37   88.44</time>
   <energy>
    <i name="e_fr_energy">  -1089.74131058 </i>
    <i name="e_wo_entrp">  -1089.74131058 </i>
    <i name="e_0_energy">  -1089.74131058 </i>
   </energy>
  </scstep>
  <scstep>
   <time name="diag">   33.35   33.35</time>
   <time name="diis">   31.61   31.62</time>
   <time name="orth">   19.01   19.01</time>
   <time name="total">   84.55   84.66</time>
   <energy>
    <i name="alphaZ">   5614.73205141 </i>
    <i name="ewald"> -61611.46974555 </i>
    <i name="hartreedc"> -16935.45886232 </i>
    <i name="XCdc">   3074.83471539 </i>
    <i name="pawpsdc"> 114258.37228806 </i>
    <i name="pawaedc">-113310.37792183 </i>
    <i name="eentropy">     -0.00000000 </i>
    <i name="bandstr">  -7097.18579703 </i>
    <i name="atom">  74916.81196153 </i>
    <i name="e_fr_energy">  -1089.74131034 </i>
    <i name="e_wo_entrp">  -1089.74131034 </i>
    <i name="e_0_energy">  -1089.74131034 </i>
   </energy>
  </scstep>
  <structure>
   <crystal>
    <varray name="basis" >
     <v>      11.25524123       0.00274031       0.00061842 </v>
     <v>       0.00269690      11.29059607      -0.00403391 </v>
     <v>       0.00086952      -0.00563601      15.80075245 </v>
    </varray>
    <i name="volume">   2007.93368384 </i>
    <varray name="rec_basis" >
     <v>       0.08884750      -0.00002122      -0.00000490 </v>
     <v>      -0.00002157       0.08856930       0.00003159 </v>
     <v>      -0.00000348       0.00002261       0.06328813 </v>
    </varray>
   </crystal>
   <varray name="positions" >
    <v>       0.99914768       0.25341491       0.11428485 </v>
    <v>       0.00367381       0.24711501       0.62526096 </v>
    <v>       0.99726889       0.74033845       0.11766588 </v>
    <v>       0.99972522       0.75101098       0.62194572 </v>
    <v>       0.50058861       0.25504618       0.11666084 </v>
    <v>       0.49911103       0.26036964       0.61776648 </v>
    <v>       0.49834220       0.74144715       0.11715774 </v>
    <v>       0.49848991       0.73839883       0.62238680 </v>
    <v>       0.99984494       0.25433568       0.38365008 </v>
    <v>       0.00316432       0.24692277       0.87766179 </v>
    <v>       0.99658465       0.74039099       0.38145919 </v>
    <v>       0.99932765       0.75084238       0.87829626 </v>
    <v>       0.50207343       0.25284471       0.38174713 </v>
    <v>       0.49804184       0.26100018       0.88442893 </v>
    <v>       0.49833292       0.74425204       0.38255023 </v>
    <v>       0.49862489       0.73512855       0.87791623 </v>
    <v>       0.24760316       0.99676494       0.11502046 </v>
    <v>       0.24091990       0.99613446       0.62196197 </v>
    <v>       0.24794684       0.50885662       0.11800582 </v>
    <v>       0.24855774       0.50405039       0.62184489 </v>
    <v>       0.75305459       0.99763767       0.11579747 </v>
    <v>       0.75849181       0.99607481       0.62211132 </v>
    <v>       0.74678117       0.50810311       0.11685797 </v>
    <v>       0.74899181       0.50237648       0.62417037 </v>
    <v>       0.25349833       0.99427042       0.38450508 </v>
    <v>       0.23987642       0.99827473       0.87926412 </v>
    <v>       0.24762903       0.51193330       0.38057266 </v>
    <v>       0.24855078       0.50114042       0.88013760 </v>
    <v>       0.74627022       0.99441875       0.38435458 </v>
    <v>       0.75896179       0.99889484       0.87868490 </v>
    <v>       0.74744924       0.51131896       0.38186239 </v>
    <v>       0.74933055       0.49990851       0.87793871 </v>
    <v>       0.50152738       0.50504786       0.24858195 </v>
    <v>       0.99921836       0.99924423       0.49630090 </v>
    <v>       0.75044525       0.74699459       0.25109632 </v>
    <v>       0.49845606       0.50247275       0.49884521 </v>
    <v>       0.49849096       0.00391325       0.50553978 </v>
    <v>       0.74978022       0.24847611       0.99850132 </v>
    <v>       0.24796960       0.24854734       0.99989126 </v>
    <v>       0.00022615       0.99933661       0.75096331 </v>
    <v>       0.24702299       0.74950621       0.99954026 </v>
    <v>       0.25211100       0.74730707       0.25114781 </v>
    <v>       0.74962786       0.24799309       0.50147127 </v>
    <v>       0.99833238       0.50204699       0.50097264 </v>
    <v>       0.24636354       0.74751753       0.74853720 </v>
    <v>       0.75175135       0.74852702       0.74857187 </v>
    <v>       0.49911313       0.49167632       0.75139631 </v>
    <v>       0.99990265       0.50167998       0.75204786 </v>
    <v>       0.74973434       0.74960167       0.99892009 </v>
    <v>       0.24941114       0.24819533       0.50006784 </v>
    <v>       0.00135088       0.50303702       0.24844005 </v>
    <v>       0.49822685       0.00485357       0.99748102 </v>
    <v>       0.99827905       0.49918048       0.99945853 </v>
    <v>       0.75883237       0.28171374       0.25014367 </v>
    <v>       0.74826400       0.75063054       0.50108394 </v>
    <v>       0.49853073       0.49985717       0.00130001 </v>
    <v>       0.00800547       0.96849804       0.25136692 </v>
    <v>       0.24845849       0.75058821       0.50040096 </v>
    <v>       0.76561939       0.26042004       0.75012481 </v>
    <v>       0.24137149       0.26502752       0.75016054 </v>
    <v>       0.99870791       0.00141947       0.00175598 </v>
    <v>       0.50881120       0.96791780       0.24903811 </v>
    <v>       0.50380521       0.97185135       0.75086225 </v>
    <v>       0.25771607       0.28180538       0.25023629 </v>
    <v>       0.98996757       0.03383917       0.14354316 </v>
    <v>       0.00063442       0.99657465       0.62221061 </v>
    <v>       0.99996943       0.50397341       0.12576908 </v>
    <v>       0.99677258       0.49351883       0.62447623 </v>
    <v>       0.49350435       0.02276790       0.13552959 </v>
    <v>       0.49349112       0.03138885       0.63697553 </v>
    <v>       0.50118786       0.50641593       0.12642937 </v>
    <v>       0.49506431       0.49207408       0.62410017 </v>
    <v>       0.99255307       0.02701569       0.36408432 </v>
    <v>       0.99996907       0.99660692       0.87438406 </v>
    <v>       0.99935268       0.50239948       0.37481468 </v>
    <v>       0.99853632       0.49674040       0.87475252 </v>
    <v>       0.49492475       0.02336656       0.36271172 </v>
    <v>       0.49261508       0.03168411       0.86314813 </v>
    <v>       0.50025164       0.50690711       0.37463663 </v>
    <v>       0.49660164       0.49404860       0.87468021 </v>
    <v>       0.24101797       0.22119066       0.36141600 </v>
    <v>       0.25577415       0.24354177       0.87481775 </v>
    <v>       0.25520791       0.74768017       0.37474391 </v>
    <v>       0.24489544       0.75410978       0.87465235 </v>
    <v>       0.74457249       0.22075742       0.36173781 </v>
    <v>       0.73955693       0.24352930       0.87339255 </v>
    <v>       0.74473305       0.74741199       0.37494996 </v>
    <v>       0.74945216       0.75486055       0.87407244 </v>
    <v>       0.24224713       0.22286962       0.13880549 </v>
    <v>       0.25672102       0.24441764       0.62397761 </v>
    <v>       0.25455343       0.74844674       0.12519407 </v>
    <v>       0.24564626       0.75218197       0.62516510 </v>
    <v>       0.74237157       0.22274757       0.13847262 </v>
    <v>       0.74057984       0.24535091       0.62531265 </v>
    <v>       0.74435406       0.74717674       0.12480211 </v>
    <v>       0.74983674       0.75369588       0.62568874 </v>
    <v>       0.15117236       0.40821262       0.25067123 </v>
    <v>       0.41287302       0.34515373       0.25051066 </v>
    <v>       0.65058627       0.40700111       0.25136132 </v>
    <v>       0.91358512       0.34484316       0.24983587 </v>
    <v>       0.10391713       0.65075759       0.25042806 </v>
    <v>       0.35238206       0.59954286       0.24979270 </v>
    <v>       0.60171762       0.65137091       0.25058323 </v>
    <v>       0.85231507       0.60103523       0.25000631 </v>
    <v>       0.16352434       0.90565006       0.25047411 </v>
    <v>       0.40227795       0.84279639       0.24998966 </v>
    <v>       0.66394725       0.90688741       0.24923498 </v>
    <v>       0.90044526       0.84233154       0.25033219 </v>
    <v>       0.13519589       0.11442091       0.50068627 </v>
    <v>       0.38601244       0.13764191       0.49648120 </v>
    <v>       0.63389403       0.11501534       0.50004673 </v>
    <v>       0.88460455       0.13614755       0.50250469 </v>
    <v>       0.11749559       0.36303640       0.49780175 </v>
    <v>       0.36429969       0.38050119       0.49075627 </v>
    <v>       0.61722109       0.36478916       0.49386134 </v>
    <v>       0.86310989       0.37940584       0.49368903 </v>
    <v>       0.12956778       0.61579634       0.50130158 </v>
    <v>       0.38187286       0.63136921       0.50273588 </v>
    <v>       0.62923615       0.61637046       0.50436145 </v>
    <v>       0.88097923       0.63011728       0.50160559 </v>
    <v>       0.11450852       0.87059300       0.49039470 </v>
    <v>       0.36874329       0.89067954       0.50391648 </v>
    <v>       0.61117241       0.87351293       0.50173250 </v>
    <v>       0.86813826       0.88594235       0.49423141 </v>
    <v>       0.12047878       0.13457959       0.74873823 </v>
    <v>       0.85763987       0.10745377       0.74850675 </v>
    <v>       0.14442969       0.39956045       0.74918760 </v>
    <v>       0.39788576       0.34290499       0.75010909 </v>
    <v>       0.63903176       0.38345302       0.74908198 </v>
    <v>       0.89962484       0.35705383       0.75049325 </v>
    <v>       0.10502371       0.64316504       0.74917572 </v>
    <v>       0.35656232       0.60452426       0.75011490 </v>
    <v>       0.60892967       0.63711513       0.74903544 </v>
    <v>       0.85694745       0.60688865       0.75004883 </v>
    <v>       0.14208368       0.89104679       0.74909768 </v>
    <v>       0.38992556       0.85415605       0.74967496 </v>
    <v>       0.65017468       0.89711313       0.75003203 </v>
    <v>       0.89414327       0.85635982       0.74889999 </v>
    <v>       0.13330607       0.11616232       0.99932154 </v>
    <v>       0.38372627       0.13491570       0.00300068 </v>
    <v>       0.63188704       0.11480767       0.00027268 </v>
    <v>       0.88119107       0.13387423       0.99781849 </v>
    <v>       0.11937321       0.36455728       0.00166066 </v>
    <v>       0.36486346       0.37850328       0.00834964 </v>
    <v>       0.61930065       0.36506260       0.00581264 </v>
    <v>       0.86368682       0.37822798       0.00492066 </v>
    <v>       0.13086957       0.62032924       0.99904339 </v>
    <v>       0.37895288       0.63371357       0.99729135 </v>
    <v>       0.63020334       0.62064235       0.99587250 </v>
    <v>       0.87813694       0.63232961       0.99822345 </v>
    <v>       0.11682236       0.87009369       0.00876813 </v>
    <v>       0.36832328       0.88814695       0.99681720 </v>
    <v>       0.61208256       0.87263139       0.99856245 </v>
    <v>       0.86696347       0.88251404       0.00511801 </v>
   </varray>
  </structure>
  <varray name="forces" >
   <v>      -0.00256279       0.02452066      -0.00051731 </v>
   <v>      -0.00396893      -0.01058306      -0.00689243 </v>
   <v>      -0.00935743      -0.01925262      -0.00429438 </v>
   <v>      -0.01403121      -0.00268477       0.02140827 </v>
   <v>      -0.00650692       0.02710974      -0.00294867 </v>
   <v>      -0.01025721      -0.04015698       0.00453098 </v>
   <v>       0.00519477      -0.01558291       0.01309008 </v>
   <v>      -0.02290659       0.01009444       0.00536489 </v>
   <v>      -0.00136717      -0.00892013      -0.01909743 </v>
   <v>      -0.00286234       0.00961914       0.02327855 </v>
   <v>      -0.00518362       0.00210871      -0.00899123 </v>
   <v>      -0.01051505      -0.01572728      -0.00798814 </v>
   <v>      -0.00688742      -0.00225451      -0.00632154 </v>
   <v>      -0.01180922      -0.01512631      -0.00889096 </v>
   <v>       0.00008480       0.00398651      -0.01051074 </v>
   <v>      -0.01807411      -0.00344528      -0.00326404 </v>
   <v>      -0.00851328       0.00235348       0.00856304 </v>
   <v>      -0.00213203      -0.00869454      -0.01098283 </v>
   <v>      -0.01613609      -0.00651120      -0.00266285 </v>
   <v>      -0.00951003       0.01056547       0.00458871 </v>
   <v>       0.00654868       0.00142360       0.00215318 </v>
   <v>      -0.00307880      -0.00042918       0.00273852 </v>
   <v>       0.02005189       0.00324804      -0.00513289 </v>
   <v>      -0.00898077       0.00247608       0.00960121 </v>
   <v>      -0.00314381       0.00029317      -0.00461913 </v>
   <v>      -0.02057895      -0.00364909       0.00497183 </v>
   <v>       0.00478582       0.00557666      -0.02795943 </v>
   <v>      -0.01749905       0.00820508       0.00498834 </v>
   <v>       0.00417635      -0.00822125       0.00173026 </v>
   <v>       0.01201989       0.01379251      -0.01483862 </v>
   <v>      -0.00187000       0.00921760      -0.01954587 </v>
   <v>      -0.01187796      -0.00007824       0.01041112 </v>
   <v>      -0.01209875       0.00494853      -0.00757768 </v>
   <v>      -0.00848498       0.03096691       0.00639260 </v>
   <v>      -0.01546627       0.00664612      -0.00536797 </v>
   <v>       0.01426780       0.03597551      -0.03708225 </v>
   <v>      -0.00612278       0.01324724       0.00493656 </v>
   <v>       0.03638669       0.05164394      -0.01548985 </v>
   <v>      -0.04558196       0.03574663      -0.01328706 </v>
   <v>      -0.00436399      -0.01443569       0.02935855 </v>
   <v>      -0.03201383      -0.07609063      -0.03116673 </v>
   <v>       0.00923482      -0.01464986       0.01692820 </v>
   <v>      -0.01980478      -0.05333184       0.02132421 </v>
   <v>      -0.00704867       0.03407630      -0.01934877 </v>
   <v>      -0.01603988      -0.00524535       0.00533688 </v>
   <v>       0.02227814       0.01223272      -0.00317391 </v>
   <v>      -0.00460576      -0.02054608       0.08701781 </v>
   <v>       0.00435026       0.06078175       0.09267302 </v>
   <v>       0.05987915      -0.09776432      -0.01514619 </v>
   <v>       0.00941882      -0.06650685       0.01443643 </v>
   <v>      -0.00061564      -0.01129136      -0.07595791 </v>
   <v>      -0.01683628       0.03848158       0.01087319 </v>
   <v>      -0.01141610       0.01381839      -0.00879096 </v>
   <v>      -0.01606255       0.02134139      -0.01568965 </v>
   <v>      -0.00865178       0.00000902       0.02340517 </v>
   <v>       0.00343731       0.00350268      -0.02427857 </v>
   <v>      -0.00087414      -0.00302231      -0.01218707 </v>
   <v>       0.00147998       0.00629272       0.01105831 </v>
   <v>      -0.01356392      -0.01455803       0.00206607 </v>
   <v>       0.02453984      -0.00059912       0.00592744 </v>
   <v>      -0.00120340       0.01286692      -0.00705263 </v>
   <v>       0.00437736       0.00108299       0.01184379 </v>
   <v>      -0.00089379       0.01626805      -0.01732927 </v>
   <v>       0.00154242       0.01801142      -0.00538149 </v>
   <v>       0.01586385      -0.02942024       0.00762150 </v>
   <v>       0.00096893       0.03536752       0.01034221 </v>
   <v>      -0.00687320       0.00311731       0.07355981 </v>
   <v>       0.00433765       0.00500924      -0.01811773 </v>
   <v>       0.01557261      -0.01334634      -0.02046359 </v>
   <v>      -0.01006609       0.00306016       0.02274346 </v>
   <v>      -0.00290588      -0.00628504       0.01318551 </v>
   <v>      -0.00484680       0.01590995      -0.01076768 </v>
   <v>       0.00495149       0.00616457      -0.01820675 </v>
   <v>       0.00563063       0.03771389      -0.02446320 </v>
   <v>      -0.00062257       0.00543720       0.03542589 </v>
   <v>       0.00893825       0.01112444      -0.08199890 </v>
   <v>       0.01550587      -0.00403114      -0.01976985 </v>
   <v>      -0.00407429      -0.00495395       0.01412561 </v>
[...]
       <r>   -16.5443     0.0000    32.0000 </r>
       <r>   -16.3915     0.0000    32.0000 </r>
       <r>   -16.2387     0.0000    32.0000 </r>
       <r>   -16.0860     0.0000    32.0000 </r>
       <r>   -15.9332     0.0000    32.0000 </r>
       <r>   -15.7804     0.0000    32.0000 </r>
       <r>   -15.6276     0.0000    32.0000 </r>
       <r>   -15.4748     0.0000    32.0000 </r>
       <r>   -15.3221     0.0000    32.0000 </r>
       <r>   -15.1693     0.4806    32.0734 </r>
       <r>   -15.0165    19.5101    35.0541 </r>
       <r>   -14.8637    54.0884    43.3176 </r>
       <r>   -14.7110    45.1841    50.2208 </r>
       <r>   -14.5582    30.0787    54.8161 </r>
       <r>   -14.4054    36.7851    60.4361 </r>
       <r>   -14.2526    45.3364    67.3625 </r>
       <r>   -14.0998    94.0578    81.7324 </r>
       <r>   -13.9471   103.3043    97.5150 </r>
       <r>   -13.7943   106.3956   113.7699 </r>
       <r>   -13.6415    51.9451   121.7059 </r>
       <r>   -13.4887     1.9247   122.0000 </r>
       <r>   -13.3360     0.0000   122.0000 </r>
       <r>   -13.1832     0.0000   122.0000 </r>
       <r>   -13.0304     0.0000   122.0000 </r>
       <r>   -12.8776     0.0000   122.0000 </r>
       <r>   -12.7248     2.7460   122.4195 </r>
       <r>   -12.5721    60.9753   131.7352 </r>
       <r>   -12.4193   135.0474   152.3674 </r>
       <r>   -12.2665   142.6402   174.1597 </r>
       <r>   -12.1137   130.1255   194.0400 </r>
       <r>   -11.9610    97.7816   208.9788 </r>
       <r>   -11.8082    55.7078   217.4897 </r>
       <r>   -11.6554     3.3399   218.0000 </r>
       <r>   -11.5026     0.0000   218.0000 </r>
       <r>   -11.3498     0.0000   218.0000 </r>
       <r>   -11.1971     0.0000   218.0000 </r>
       <r>   -11.0443     0.0000   218.0000 </r>
       <r>   -10.8915     0.0000   218.0000 </r>
       <r>   -10.7387     0.0000   218.0000 </r>
       <r>   -10.5860     0.0000   218.0000 </r>
       <r>   -10.4332     0.0000   218.0000 </r>
       <r>   -10.2804     0.0000   218.0000 </r>
       <r>   -10.1276     0.0000   218.0000 </r>
       <r>    -9.9748     0.0000   218.0000 </r>
       <r>    -9.8221     0.0000   218.0000 </r>
       <r>    -9.6693     0.0000   218.0000 </r>
       <r>    -9.5165     0.0000   218.0000 </r>
       <r>    -9.3637     0.0000   218.0000 </r>
       <r>    -9.2110     0.0000   218.0000 </r>
       <r>    -9.0582     0.0000   218.0000 </r>
       <r>    -8.9054     0.0000   218.0000 </r>
       <r>    -8.7526     0.0000   218.0000 </r>
       <r>    -8.5998     0.0000   218.0000 </r>
       <r>    -8.4471     0.0000   218.0000 </r>
       <r>    -8.2943     0.0000   218.0000 </r>
       <r>    -8.1415     0.0000   218.0000 </r>
       <r>    -7.9887     0.0000   218.0000 </r>
       <r>    -7.8360     0.0000   218.0000 </r>
       <r>    -7.6832     0.0000   218.0000 </r>
       <r>    -7.5304     0.0000   218.0000 </r>
       <r>    -7.3776     0.0000   218.0000 </r>
       <r>    -7.2248     0.0000   218.0000 </r>
       <r>    -7.0721     0.0000   218.0000 </r>
       <r>    -6.9193     0.0000   218.0000 </r>
       <r>    -6.7665     0.0000   218.0000 </r>
       <r>    -6.6137     0.0000   218.0000 </r>
       <r>    -6.4610     0.0000   218.0000 </r>
       <r>    -6.3082     0.0000   218.0000 </r>
       <r>    -6.1554     0.0000   218.0000 </r>
       <r>    -6.0026     0.0000   218.0000 </r>
       <r>    -5.8498     0.0000   218.0000 </r>
       <r>    -5.6971     0.0000   218.0000 </r>
       <r>    -5.5443     0.0000   218.0000 </r>
       <r>    -5.3915     0.0000   218.0000 </r>
       <r>    -5.2387     0.0000   218.0000 </r>
       <r>    -5.0860     0.0000   218.0000 </r>
       <r>    -4.9332     0.0000   218.0000 </r>
       <r>    -4.7804     0.0000   218.0000 </r>
       <r>    -4.6276     0.0000   218.0000 </r>
       <r>    -4.4748     0.0000   218.0000 </r>
       <r>    -4.3221     0.0000   218.0000 </r>
       <r>    -4.1693     0.0000   218.0000 </r>
       <r>    -4.0165     0.0000   218.0000 </r>
       <r>    -3.8637     0.0000   218.0000 </r>
       <r>    -3.7110     0.0000   218.0000 </r>
       <r>    -3.5582     0.0000   218.0000 </r>
       <r>    -3.4054     0.0000   218.0000 </r>
       <r>    -3.2526     0.0000   218.0000 </r>
       <r>    -3.0998     0.0000   218.0000 </r>
       <r>    -2.9471     0.0000   218.0000 </r>
       <r>    -2.7943     0.0000   218.0000 </r>
       <r>    -2.6415     0.0000   218.0000 </r>
       <r>    -2.4887     0.1780   218.0272 </r>
       <r>    -2.3360    11.2033   219.7388 </r>
       <r>    -2.1832    15.3753   222.0878 </r>
       <r>    -2.0304    17.6300   224.7813 </r>
       <r>    -1.8776    35.0699   230.1392 </r>
       <r>    -1.7248    40.8856   236.3856 </r>
       <r>    -1.5721    42.8405   242.9307 </r>
       <r>    -1.4193    44.3300   249.7033 </r>
       <r>    -1.2665    63.1323   259.3485 </r>
       <r>    -1.1137    76.7845   271.0795 </r>
       <r>    -0.9610    79.8192   283.2741 </r>
       <r>    -0.8082    71.2755   294.1634 </r>
       <r>    -0.6554    90.8747   308.0470 </r>
       <r>    -0.5026   100.3620   323.3801 </r>
       <r>    -0.3498    92.6198   337.5303 </r>
       <r>    -0.1971    63.5768   347.2435 </r>
       <r>    -0.0443    54.7642   355.6102 </r>
       <r>     0.1085    48.7217   363.0538 </r>
       <r>     0.2613    57.8734   371.8956 </r>
       <r>     0.4140    53.1552   380.0165 </r>
       <r>     0.5668    54.1582   388.2907 </r>
       <r>     0.7196    53.5241   396.4680 </r>
       <r>     0.8724    49.5424   404.0370 </r>
       <r>     1.0252    55.1303   412.4596 </r>
       <r>     1.1779    67.1230   422.7146 </r>
       <r>     1.3307    91.9244   436.7586 </r>
       <r>     1.4835    86.6533   449.9973 </r>
       <r>     1.6363    87.7903   463.4097 </r>
       <r>     1.7890    71.6743   474.3599 </r>
       <r>     1.9418    38.0032   480.1659 </r>
       <r>     2.0946    28.8179   484.5687 </r>
       <r>     2.2474    21.7410   487.8902 </r>
       <r>     2.4002     0.7185   488.0000 </r>
       <r>     2.5529     0.0000   488.0000 </r>
       <r>     2.7057     0.0000   488.0000 </r>
       <r>     2.8585     0.0000   488.0000 </r>
       <r>     3.0113     0.0000   488.0000 </r>
       <r>     3.1640     0.0000   488.0000 </r>
       <r>     3.3168     0.0000   488.0000 </r>
       <r>     3.4696     0.0000   488.0000 </r>
       <r>     3.6224     0.0000   488.0000 </r>
       <r>     3.7752     0.0000   488.0000 </r>
       <r>     3.9279     0.0000   488.0000 </r>
       <r>     4.0807     0.0000   488.0000 </r>
       <r>     4.2335     0.0000   488.0000 </r>
       <r>     4.3863     0.3398   488.0519 </r>
       <r>     4.5390    17.3212   490.6982 </r>
       <r>     4.6918    50.5527   498.4215 </r>
       <r>     4.8446    49.3289   505.9579 </r>
       <r>     4.9974    42.6110   512.4679 </r>
       <r>     5.1502    68.3564   522.9112 </r>
       <r>     5.3029    74.4893   534.2915 </r>
       <r>     5.4557    63.2901   543.9609 </r>
       <r>     5.6085    77.0539   555.7330 </r>
       <r>     5.7613    72.5543   566.8177 </r>
       <r>     5.9140    76.8807   578.5633 </r>
       <r>     6.0668    83.6360   591.3411 </r>
       <r>     6.2196    65.4862   601.3459 </r>
       <r>     6.3724    46.3495   608.4271 </r>
       <r>     6.5252     8.3246   609.6989 </r>
       <r>     6.6779    15.7448   612.1043 </r>
       <r>     6.8307    19.4934   615.0825 </r>
       <r>     6.9835    19.1851   618.0136 </r>
       <r>     7.1363    23.5233   621.6074 </r>
       <r>     7.2890    19.4591   624.5803 </r>
       <r>     7.4418    14.1380   626.7403 </r>
       <r>     7.5946    18.0097   629.4918 </r>
       <r>     7.7474    16.1030   631.9519 </r>
       <r>     7.9002    18.5811   634.7907 </r>
       <r>     8.0529    26.0420   638.7694 </r>
       <r>     8.2057    28.6540   643.1471 </r>
       <r>     8.3585    22.7584   646.6240 </r>
       <r>     8.5113    24.5593   650.3761 </r>
       <r>     8.6640    17.3335   653.0243 </r>
       <r>     8.8168    20.0909   656.0938 </r>
       <r>     8.9696    37.9686   661.8945 </r>
       <r>     9.1224    43.0360   668.4695 </r>
       <r>     9.2752    36.7342   674.0816 </r>
       <r>     9.4279    40.6406   680.2906 </r>
       <r>     9.5807    40.2992   686.4474 </r>
       <r>     9.7335    50.2483   694.1242 </r>
       <r>     9.8863    59.2278   703.1729 </r>
       <r>    10.0390    62.5984   712.7366 </r>
       <r>    10.1918    57.5905   721.5351 </r>
       <r>    10.3446    61.8915   730.9908 </r>
       <r>    10.4974    57.2724   739.7407 </r>
       <r>    10.6502    57.6770   748.5525 </r>
       <r>    10.8029    49.9872   756.1894 </r>
       <r>    10.9557    54.0267   764.4435 </r>
       <r>    11.1085    23.2642   767.9977 </r>
       <r>    11.2613     0.0148   768.0000 </r>
       <r>    11.4140     0.0000   768.0000 </r>
       <r>    11.5668     0.0000   768.0000 </r>
       <r>    11.7196     0.0000   768.0000 </r>
       <r>    11.8724     0.0000   768.0000 </r>
       <r>    12.0251     0.0000   768.0000 </r>
       <r>    12.1779     0.0000   768.0000 </r>
       <r>    12.3307     0.0000   768.0000 </r>
       <r>    12.4835     0.0000   768.0000 </r>
       <r>    12.6363     0.0000   768.0000 </r>
       <r>    12.7890     0.0000   768.0000 </r>
       <r>    12.9418     0.0000   768.0000 </r>
       <r>    13.0946     0.0000   768.0000 </r>
      </set>
     </set>
    </array>
   </total>
  </dos>
 </calculation>
 <structure name="finalpos" >
  <crystal>
   <varray name="basis" >
    <v>      11.25422087       0.00282820       0.00022871 </v>
    <v>       0.00278539      11.28867883      -0.00389726 </v>
    <v>       0.00032212      -0.00544209      15.80509204 </v>
   </varray>
   <i name="volume">   2007.96205693 </i>
   <varray name="rec_basis" >
    <v>       0.08885556      -0.00002193      -0.00000182 </v>
    <v>      -0.00002226       0.08858434       0.00003050 </v>
    <v>      -0.00000129       0.00002184       0.06327076 </v>
   </varray>
  </crystal>
  <varray name="positions" >
   <v>       0.99904370       0.25358705       0.11425066 </v>
   <v>       0.00342787       0.24714045       0.62493128 </v>
   <v>       0.99721641       0.74039249       0.11766338 </v>
   <v>       0.99915330       0.75079145       0.62229152 </v>
   <v>       0.50035508       0.25575526       0.11616942 </v>
   <v>       0.49857239       0.25965005       0.61764513 </v>
   <v>       0.49846380       0.74106455       0.11707372 </v>
   <v>       0.49744974       0.73808780       0.62262231 </v>
   <v>       0.99979525       0.25422768       0.38359961 </v>
   <v>       0.00302713       0.24705001       0.87806789 </v>
   <v>       0.99658525       0.74037612       0.38148525 </v>
   <v>       0.99889978       0.75074974       0.87802936 </v>
   <v>       0.50180781       0.25278773       0.38208843 </v>
   <v>       0.49747689       0.26005341       0.88435499 </v>
   <v>       0.49831317       0.74432267       0.38256354 </v>
   <v>       0.49788317       0.73549281       0.87792107 </v>
   <v>       0.24722920       0.99684953       0.11492690 </v>
   <v>       0.24046942       0.99575224       0.62158159 </v>
   <v>       0.24770991       0.50851493       0.11788490 </v>
   <v>       0.24815173       0.50424650       0.62175581 </v>
   <v>       0.75317588       0.99791823       0.11534053 </v>
   <v>       0.75844952       0.99608488       0.62223889 </v>
   <v>       0.74711626       0.50813397       0.11689386 </v>
   <v>       0.74855147       0.50230962       0.62441106 </v>
   <v>       0.25323122       0.99434577       0.38447509 </v>
   <v>       0.23915997       0.99813784       0.87970859 </v>
   <v>       0.24766669       0.51198051       0.38042706 </v>
   <v>       0.24825113       0.50144493       0.88002444 </v>
   <v>       0.74661079       0.99442649       0.38472767 </v>
   <v>       0.75903549       0.99931359       0.87859050 </v>
   <v>       0.74749733       0.51160117       0.38168353 </v>
   <v>       0.74832528       0.49993988       0.87774880 </v>
   <v>       0.50164446       0.50497628       0.24854872 </v>
   <v>       0.99909736       0.99942340       0.49664752 </v>
   <v>       0.75046702       0.74749822       0.25106227 </v>
   <v>       0.49859994       0.50254018       0.49888237 </v>
   <v>       0.49819893       0.00360730       0.50577021 </v>
   <v>       0.74966175       0.24856109       0.99809253 </v>
   <v>       0.24768476       0.24871616       0.99977663 </v>
   <v>       0.00022702       0.99983959       0.75105574 </v>
   <v>       0.24688926       0.74905095       0.99951823 </v>
   <v>       0.25218651       0.74724707       0.25115541 </v>
   <v>       0.74932254       0.24774044       0.50164556 </v>
   <v>       0.99822223       0.50214097       0.50098858 </v>
   <v>       0.24617111       0.74733688       0.74864422 </v>
   <v>       0.75161281       0.74859273       0.74868856 </v>
   <v>       0.49905048       0.49150552       0.75147147 </v>
   <v>       0.99985848       0.50182060       0.75228191 </v>
   <v>       0.74993471       0.74946003       0.99876411 </v>
   <v>       0.24924154       0.24804446       0.50020504 </v>
   <v>       0.00130779       0.50321108       0.24840064 </v>
   <v>       0.49799441       0.00474361       0.99792485 </v>
   <v>       0.99808601       0.49951891       0.99934382 </v>
   <v>       0.75869873       0.28176013       0.25015819 </v>
   <v>       0.74817984       0.75052113       0.50133871 </v>
   <v>       0.49856524       0.49982777       0.00098457 </v>
   <v>       0.00822737       0.96833249       0.25120687 </v>
   <v>       0.24826202       0.75030923       0.50048479 </v>
   <v>       0.76597004       0.26023596       0.75007047 </v>
   <v>       0.24148709       0.26519150       0.75014522 </v>
   <v>       0.99853092       0.00157859       0.00176948 </v>
   <v>       0.50936137       0.96783331       0.24887668 </v>
   <v>       0.50376594       0.97158911       0.75093922 </v>
   <v>       0.25807230       0.28216280       0.25027153 </v>
   <v>       0.99092988       0.03296308       0.14314324 </v>
   <v>       0.00057374       0.99828812       0.62236451 </v>
   <v>       0.99923256       0.50409576       0.12590722 </v>
   <v>       0.99686415       0.49406586       0.62452520 </v>
   <v>       0.49431558       0.02215327       0.13509140 </v>
   <v>       0.49273661       0.03143328       0.63715341 </v>
   <v>       0.50118877       0.50589998       0.12633757 </v>
   <v>       0.49510340       0.49258557       0.62418138 </v>
   <v>       0.99287994       0.02688085       0.36374208 </v>
   <v>       0.00008837       0.99851218       0.87443059 </v>
   <v>       0.99923449       0.50262748       0.37493336 </v>
   <v>       0.99903996       0.49760854       0.87463352 </v>
   <v>       0.49555679       0.02325390       0.36237125 </v>
   <v>       0.49219151       0.03147273       0.86309387 </v>
   <v>       0.50017598       0.50705892       0.37476494 </v>
   <v>       0.49640921       0.49442970       0.87437218 </v>
   <v>       0.24169617       0.22141776       0.36127658 </v>
   <v>       0.25536056       0.24346531       0.87482033 </v>
   <v>       0.25451217       0.74756669       0.37471551 </v>
   <v>       0.24485658       0.75316644       0.87464326 </v>
   <v>       0.74429149       0.22075725       0.36164958 </v>
   <v>       0.73963610       0.24222857       0.87307189 </v>
   <v>       0.74470535       0.74829681       0.37496731 </v>
   <v>       0.74962339       0.75400989       0.87402902 </v>
   <v>       0.24310972       0.22317408       0.13897054 </v>
   <v>       0.25642979       0.24429876       0.62398738 </v>
   <v>       0.25373191       0.74811628       0.12520797 </v>
   <v>       0.24592882       0.75186496       0.62528261 </v>
   <v>       0.74255003       0.22336636       0.13839746 </v>
   <v>       0.74114000       0.24438576       0.62546530 </v>
   <v>       0.74474767       0.74757067       0.12472359 </v>
   <v>       0.75016556       0.75281620       0.62591412 </v>
   <v>       0.15145522       0.40866139       0.25057954 </v>
   <v>       0.41340303       0.34519165       0.25069252 </v>
   <v>       0.65083748       0.40733268       0.25138265 </v>
   <v>       0.91368431       0.34470233       0.24993442 </v>
   <v>       0.10376421       0.65081117       0.25047192 </v>
   <v>       0.35234642       0.59951391       0.24967272 </v>
   <v>       0.60192566       0.65157573       0.25044057 </v>
   <v>       0.85216072       0.60123619       0.25023893 </v>
   <v>       0.16394100       0.90568493       0.25044648 </v>
   <v>       0.40267884       0.84254423       0.24986764 </v>
   <v>       0.66495038       0.90770372       0.24903057 </v>
   <v>       0.90099238       0.84192605       0.25031424 </v>
   <v>       0.13357255       0.11592621       0.50036002 </v>
   <v>       0.38411823       0.13587698       0.49641665 </v>
   <v>       0.63220994       0.11620779       0.50023660 </v>
   <v>       0.88307677       0.13489570       0.50167600 </v>
   <v>       0.11798108       0.36375566       0.49773226 </v>
   <v>       0.36544538       0.37943551       0.49122338 </v>
   <v>       0.61771324       0.36525303       0.49435253 </v>
   <v>       0.86396423       0.37852400       0.49420612 </v>
   <v>       0.12949354       0.61592059       0.50136708 </v>
   <v>       0.38164967       0.63095907       0.50269642 </v>
   <v>       0.62921287       0.61645612       0.50434458 </v>
   <v>       0.88092478       0.62996196       0.50139125 </v>
   <v>       0.11562698       0.87174327       0.49140946 </v>
   <v>       0.36942971       0.88945928       0.50379634 </v>
   <v>       0.61209598       0.87413222       0.50228612 </v>
   <v>       0.86896472       0.88525209       0.49499926 </v>
   <v>       0.12038269       0.13507733       0.74877187 </v>
   <v>       0.85750012       0.10728134       0.74846646 </v>
   <v>       0.14512749       0.40030922       0.74924891 </v>
   <v>       0.39880626       0.34187559       0.74998504 </v>
   <v>       0.63977095       0.38380442       0.74907598 </v>
   <v>       0.90043960       0.35671416       0.75073273 </v>
   <v>       0.10485020       0.64340472       0.74909363 </v>
   <v>       0.35635023       0.60394439       0.75007556 </v>
   <v>       0.60883424       0.63721056       0.74912658 </v>
   <v>       0.85691410       0.60673776       0.75018412 </v>
   <v>       0.14209863       0.89122045       0.74921425 </v>
   <v>       0.39052056       0.85310044       0.74990969 </v>
   <v>       0.65078478       0.89765580       0.75004876 </v>
   <v>       0.89430949       0.85669366       0.74911099 </v>
   <v>       0.13191665       0.11768370       0.99982407 </v>
   <v>       0.38213289       0.13344592       0.00309654 </v>
   <v>       0.63034915       0.11597958       0.00017010 </v>
   <v>       0.87976130       0.13286354       0.99841621 </v>
   <v>       0.12020684       0.36558089       0.00206890 </v>
   <v>       0.36592324       0.37753154       0.00789568 </v>
   <v>       0.61986609       0.36573837       0.00487250 </v>
   <v>       0.86449841       0.37741588       0.00400616 </v>
   <v>       0.13085473       0.62049793       0.99922952 </v>
   <v>       0.37889948       0.63338928       0.99743052 </v>
   <v>       0.63009353       0.62094972       0.99602417 </v>
   <v>       0.87811760       0.63244885       0.99833123 </v>
   <v>       0.11783235       0.87102971       0.00780280 </v>
   <v>       0.36901634       0.88707200       0.99698192 </v>
   <v>       0.61296423       0.87320304       0.99817171 </v>
   <v>       0.86757023       0.88221890       0.00460802 </v>
  </varray>
 </structure>
</modeling>
