       N       E                     dE             d eps       ncg     rms          rms(c)
DAV:   1    -0.108647413977E+04   -0.10865E+04   -0.18411E-02 13488   0.320E-01    0.311E-02
RMM:   2    -0.108647413867E+04    0.11025E-05   -0.23886E-05  6703   0.820E-03    0.530E-02
RMM:   3    -0.108647413905E+04   -0.38029E-06   -0.65492E-06  6196   0.481E-03    0.409E-03
RMM:   4    -0.108647413919E+04   -0.14367E-06   -0.18978E-06  3226   0.211E-03    0.299E-03
RMM:   5    -0.108647413926E+04   -0.72396E-07   -0.11217E-06  3109   0.234E-03    0.272E-03
RMM:   6    -0.108647413932E+04   -0.57349E-07   -0.50276E-07  2212   0.177E-03    0.122E-03
RMM:   7    -0.108647413935E+04   -0.32596E-07   -0.34535E-07  2044   0.186E-03    0.676E-04
RMM:   8    -0.108647413936E+04   -0.11889E-07   -0.10865E-07  1546   0.173E-03
   1 F= -.10864741E+04 E0= -.10864741E+04  d E =-.108647E+04  mag=    60.0000
       N       E                     dE             d eps       ncg     rms          rms(c)
DAV:   1    -0.108647381673E+04    0.32263E-03   -0.25238E-01 12536   0.588E-01    0.259E-01
RMM:   2    -0.108647470514E+04   -0.88841E-03   -0.80649E-03 12318   0.121E-01    0.203E-01
RMM:   3    -0.108647473133E+04   -0.26188E-04   -0.40032E-04  9953   0.372E-02    0.121E-01
RMM:   4    -0.108647467124E+04    0.60087E-04   -0.15918E-04  7704   0.166E-02    0.658E-02
RMM:   5    -0.108647466167E+04    0.95685E-05   -0.70181E-05  7255   0.113E-02    0.455E-02
RMM:   6    -0.108647466200E+04   -0.33081E-06   -0.17978E-05  6943   0.732E-03    0.201E-02
RMM:   7    -0.108647466181E+04    0.19681E-06   -0.74704E-06  6111   0.367E-03    0.113E-02
RMM:   8    -0.108647466176E+04    0.46857E-07   -0.36817E-06  5339   0.337E-03
   2 F= -.10864747E+04 E0= -.10864747E+04  d E =-.522396E-03  mag=    60.0000
       N       E                     dE             d eps       ncg     rms          rms(c)
DAV:   1    -0.108647467943E+04   -0.17623E-04   -0.15986E-02 12592   0.148E-01    0.654E-02
RMM:   2    -0.108647473488E+04   -0.55447E-04   -0.49376E-04 10563   0.308E-02    0.519E-02
RMM:   3    -0.108647473745E+04   -0.25763E-05   -0.26600E-05  6547   0.102E-02    0.301E-02
RMM:   4    -0.108647473445E+04    0.30042E-05   -0.10695E-05  6148   0.475E-03    0.174E-02
RMM:   5    -0.108647473395E+04    0.49532E-06   -0.51676E-06  5357   0.329E-03    0.106E-02
RMM:   6    -0.108647473401E+04   -0.56243E-07   -0.66632E-07  3133   0.210E-03    0.332E-03
RMM:   7    -0.108647473400E+04    0.57044E-08   -0.13000E-08  1239   0.160E-03    0.200E-03
RMM:   8    -0.108647473405E+04   -0.46697E-07   -0.17006E-08  1134   0.164E-03
   3 F= -.10864747E+04 E0= -.10864747E+04  d E =-.594687E-03  mag=    60.0000
       N       E                     dE             d eps       ncg     rms          rms(c)
DAV:   1    -0.108647449531E+04    0.23870E-03   -0.26994E-01 12496   0.617E-01    0.195E-01
RMM:   2    -0.108647528086E+04   -0.78556E-03   -0.72752E-03 12355   0.115E-01    0.133E-01
RMM:   3    -0.108647530913E+04   -0.28273E-04   -0.34188E-04  9252   0.370E-02    0.814E-02
RMM:   4    -0.108647528692E+04    0.22216E-04   -0.94473E-05  7194   0.138E-02    0.451E-02
RMM:   5    -0.108647528559E+04    0.13263E-05   -0.41939E-05  7037   0.962E-03    0.361E-02
RMM:   6    -0.108647528702E+04   -0.14317E-05   -0.13736E-05  6789   0.622E-03    0.132E-02
RMM:   7    -0.108647528777E+04   -0.74512E-06   -0.58711E-06  5597   0.357E-03    0.633E-03
RMM:   8    -0.108647528832E+04   -0.55326E-06   -0.34824E-06  4923   0.313E-03
   4 F= -.10864753E+04 E0= -.10864753E+04  d E =-.554272E-03  mag=    60.0000
