       N       E                     dE             d eps       ncg     rms          rms(c)
DAV:   1    -0.112134195028E+04   -0.11213E+04   -0.40613E-02 13232   0.467E-01    0.487E-02
RMM:   2    -0.112134194716E+04    0.31196E-05   -0.55432E-05  6981   0.119E-02    0.836E-02
RMM:   3    -0.112134194722E+04   -0.57902E-07   -0.12326E-05  6628   0.667E-03    0.759E-03
RMM:   4    -0.112134194718E+04    0.40571E-07   -0.33452E-06  3966   0.253E-03    0.406E-03
RMM:   5    -0.112134194723E+04   -0.56592E-07   -0.18220E-06  3631   0.277E-03    0.517E-03
RMM:   6    -0.112134194724E+04   -0.10637E-07   -0.97078E-07  2744   0.207E-03    0.140E-03
RMM:   7    -0.112134194723E+04    0.17346E-07   -0.56500E-07  2264   0.208E-03    0.976E-04
RMM:   8    -0.112134194722E+04    0.42637E-08   -0.23815E-07  1858   0.189E-03
   1 F= -.11213419E+04 E0= -.11213419E+04  d E =-.112134E+04  mag=    40.0000
       N       E                     dE             d eps       ncg     rms          rms(c)
DAV:   1    -0.112134218570E+04   -0.23848E-03   -0.38333E-01 12416   0.722E-01    0.236E-01
RMM:   2    -0.112134316924E+04   -0.98354E-03   -0.10504E-02 12315   0.138E-01    0.172E-01
RMM:   3    -0.112134318653E+04   -0.17289E-04   -0.54509E-04 10544   0.433E-02    0.101E-01
RMM:   4    -0.112134311954E+04    0.66994E-04   -0.15673E-04  7517   0.160E-02    0.557E-02
RMM:   5    -0.112134310092E+04    0.18620E-04   -0.73272E-05  7200   0.111E-02    0.345E-02
RMM:   6    -0.112134310245E+04   -0.15319E-05   -0.20604E-05  6970   0.768E-03    0.228E-02
RMM:   7    -0.112134310315E+04   -0.70051E-06   -0.93019E-06  6390   0.423E-03    0.120E-02
RMM:   8    -0.112134310352E+04   -0.37428E-06   -0.48938E-06  5700   0.380E-03
   2 F= -.11213431E+04 E0= -.11213431E+04  d E =-.115630E-02  mag=    40.0000
       N       E                     dE             d eps       ncg     rms          rms(c)
DAV:   1    -0.112134310633E+04   -0.31795E-05   -0.76371E-03 13432   0.102E-01    0.333E-02
RMM:   2    -0.112134312442E+04   -0.18090E-04   -0.19233E-04  7783   0.195E-02    0.290E-02
RMM:   3    -0.112134312681E+04   -0.23942E-05   -0.20918E-05  6550   0.870E-03    0.177E-02
RMM:   4    -0.112134312629E+04    0.51962E-06   -0.66137E-06  5723   0.381E-03    0.149E-02
RMM:   5    -0.112134312571E+04    0.58810E-06   -0.34346E-06  4766   0.319E-03    0.658E-03
RMM:   6    -0.112134312568E+04    0.24360E-07   -0.13406E-06  3009   0.222E-03    0.296E-03
RMM:   7    -0.112134312572E+04   -0.40571E-07   -0.48535E-07  2393   0.211E-03    0.262E-03
RMM:   8    -0.112134312571E+04    0.94151E-08   -0.15486E-07  1863   0.188E-03
   3 F= -.11213431E+04 E0= -.11213431E+04  d E =-.117849E-02  mag=    40.0000
       N       E                     dE             d eps       ncg     rms          rms(c)
DAV:   1    -0.112134330211E+04   -0.17639E-03   -0.32378E-01 12416   0.664E-01    0.170E-01
RMM:   2    -0.112134405858E+04   -0.75646E-03   -0.82181E-03 12347   0.120E-01    0.115E-01
RMM:   3    -0.112134406411E+04   -0.55332E-05   -0.40899E-04  9492   0.395E-02    0.692E-02
RMM:   4    -0.112134403627E+04    0.27843E-04   -0.10930E-04  7145   0.137E-02    0.395E-02
RMM:   5    -0.112134403028E+04    0.59839E-05   -0.43435E-05  7053   0.947E-03    0.426E-02
RMM:   6    -0.112134403114E+04   -0.85312E-06   -0.17175E-05  6797   0.677E-03    0.116E-02
RMM:   7    -0.112134403164E+04   -0.50561E-06   -0.81012E-06  6099   0.396E-03    0.838E-03
RMM:   8    -0.112134403176E+04   -0.11470E-06   -0.46255E-06  5237   0.349E-03
   4 F= -.11213440E+04 E0= -.11213440E+04  d E =-.906044E-03  mag=    40.0000
       N       E                     dE             d eps       ncg     rms          rms(c)
DAV:   1    -0.112134363173E+04    0.39991E-03   -0.32288E-01 12384   0.663E-01    0.170E-01
RMM:   2    -0.112134438782E+04   -0.75609E-03   -0.82207E-03 12360   0.119E-01    0.116E-01
RMM:   3    -0.112134439221E+04   -0.43880E-05   -0.40841E-04  9584   0.392E-02    0.696E-02
RMM:   4    -0.112134436454E+04    0.27673E-04   -0.10948E-04  7175   0.136E-02    0.398E-02
RMM:   5    -0.112134435834E+04    0.61997E-05   -0.46141E-05  7097   0.948E-03    0.431E-02
RMM:   6    -0.112134435924E+04   -0.90127E-06   -0.18278E-05  6860   0.706E-03    0.124E-02
RMM:   7    -0.112134435985E+04   -0.61479E-06   -0.91074E-06  6296   0.402E-03    0.892E-03
RMM:   8    -0.112134436000E+04   -0.14184E-06   -0.50040E-06  5421   0.364E-03
   5 F= -.11213444E+04 E0= -.11213444E+04  d E =-.123428E-02  mag=    40.0000
       N       E                     dE             d eps       ncg     rms          rms(c)
DAV:   1    -0.112134427094E+04    0.88912E-04   -0.43061E-01 12880   0.763E-01    0.174E-01
RMM:   2    -0.112134524857E+04   -0.97762E-03   -0.10956E-02 12430   0.136E-01    0.124E-01
RMM:   3    -0.112134523892E+04    0.96461E-05   -0.55693E-04 10390   0.443E-02    0.835E-02
RMM:   4    -0.112134521190E+04    0.27022E-04   -0.11717E-04  7189   0.143E-02    0.532E-02
RMM:   5    -0.112134520353E+04    0.83698E-05   -0.61944E-05  7086   0.105E-02    0.308E-02
RMM:   6    -0.112134520619E+04   -0.26623E-05   -0.21402E-05  6998   0.787E-03    0.225E-02
RMM:   7    -0.112134520791E+04   -0.17222E-05   -0.11969E-05  6579   0.463E-03    0.839E-03
RMM:   8    -0.112134520908E+04   -0.11704E-05   -0.62905E-06  5871   0.441E-03
   6 F= -.11213452E+04 E0= -.11213452E+04  d E =-.849088E-03  mag=    40.0000
