<?xml version="1.0" encoding="ISO-8859-1"?>
<modeling>
 <generator>
  <i name="program" type="string">vasp </i>
  <i name="version" type="string">5.4.1  </i>
  <i name="subversion" type="string">05Feb16 (build Jan 25 2017 20:16:33) complex                          parallel </i>
  <i name="platform" type="string">BWXE6 </i>
  <i name="date" type="string">2019 06 20 </i>
  <i name="time" type="string">10:41:47 </i>
 </generator>
 <incar>
  <i type="string" name="SYSTEM"> STF</i>
  <i type="string" name="PREC">normal</i>
  <i type="string" name="ALGO"> Fast</i>
  <i type="int" name="ISPIN">     2</i>
  <i type="int" name="NELM">    40</i>
  <i type="int" name="NELMIN">     8</i>
  <i type="int" name="IBRION">     2</i>
  <i name="EDIFF">      0.00010000</i>
  <i name="EDIFFG">     -0.03000000</i>
  <i type="int" name="NSW">    30</i>
  <i type="int" name="ISIF">     3</i>
  <i name="ENCUT">    520.00000000</i>
  <i type="int" name="NBANDS">   768</i>
  <v name="MAGMOM">      0.60000000      0.60000000      0.60000000      0.60000000      0.60000000      0.60000000      0.60000000      0.60000000      0.60000000      0.60000000      0.60000000      0.60000000      0.60000000      0.60000000      0.60000000      0.60000000      0.60000000      0.60000000      0.60000000      0.60000000
      0.60000000      0.60000000      0.60000000      0.60000000      0.60000000      0.60000000      0.60000000      0.60000000      0.60000000      0.60000000      0.60000000      0.60000000      0.60000000      0.60000000      0.60000000      0.60000000      0.60000000      0.60000000      0.60000000      0.60000000
      0.60000000      0.60000000      0.60000000      0.60000000      0.60000000      0.60000000      0.60000000      0.60000000      0.60000000      0.60000000      0.60000000      0.60000000      0.60000000      0.60000000      0.60000000      0.60000000      0.60000000      0.60000000      0.60000000      0.60000000
      5.00000000      5.00000000      5.00000000      5.00000000      0.60000000      0.60000000      0.60000000      0.60000000      0.60000000      0.60000000      0.60000000      0.60000000      0.60000000      0.60000000      0.60000000      0.60000000      0.60000000      0.60000000      0.60000000      0.60000000
      0.60000000      0.60000000      0.60000000      0.60000000      0.60000000      0.60000000      0.60000000      0.60000000      0.60000000      0.60000000      0.60000000      0.60000000      0.60000000      0.60000000      0.60000000      0.60000000      0.60000000      0.60000000      0.60000000      0.60000000
      0.60000000      0.60000000      0.60000000      0.60000000      0.60000000      0.60000000      0.60000000      0.60000000      0.60000000      0.60000000      0.60000000      0.60000000      0.60000000      0.60000000      0.60000000      0.60000000      0.60000000      0.60000000      0.60000000      0.60000000
      0.60000000      0.60000000      0.60000000      0.60000000      0.60000000      0.60000000      0.60000000      0.60000000      0.60000000      0.60000000      0.60000000      0.60000000      0.60000000      0.60000000      0.60000000      0.60000000      0.60000000      0.60000000      0.60000000      0.60000000
      0.60000000      0.60000000      0.60000000      0.60000000      0.60000000      0.60000000      0.60000000      0.60000000      0.60000000      0.60000000      0.60000000      0.60000000      0.60000000      0.60000000      0.60000000      0.60000000      0.60000000      0.60000000</v>
  <i type="string" name="LREAL"> Auto</i>
  <i type="int" name="ISMEAR">     0</i>
  <i name="SIGMA">      0.05000000</i>
  <i type="int" name="LMAXMIX">     4</i>
  <v type="int" name="KPOINT_BSE">    -1     0     0     0</v>
  <i type="int" name="NELM">    40</i>
  <i type="logical" name="LDAU"> T  </i>
  <v type="int" name="LDAUTYPE">     2</v>
  <v type="int" name="LDAUL">     0     2     2     0</v>
  <v name="LDAUU">      0.00000000      3.00000000      5.00000000      0.00000000</v>
  <v name="LDAUJ">      0.00000000      0.00000000      0.00000000      0.00000000</v>
  <i type="int" name="LDAUPRINT">     1</i>
 </incar>
 <kpoints>
  <generation param="Monkhorst-Pack">
   <v type="int" name="divisions">       2        2        2 </v>
   <v name="usershift">      0.00000000       0.00000000       0.00000000 </v>
   <v name="genvec1">      0.50000000       0.00000000       0.00000000 </v>
   <v name="genvec2">     -0.00000000       0.50000000       0.00000000 </v>
   <v name="genvec3">      0.00000000       0.00000000       0.50000000 </v>
   <v name="shift">      0.50000000       0.50000000       0.50000000 </v>
  </generation>
  <varray name="kpointlist" >
   <v>       0.25000000       0.25000000       0.25000000 </v>
   <v>      -0.25000000       0.25000000       0.25000000 </v>
   <v>       0.25000000      -0.25000000       0.25000000 </v>
   <v>      -0.25000000      -0.25000000       0.25000000 </v>
  </varray>
  <varray name="weights" >
   <v>       0.25000000 </v>
   <v>       0.25000000 </v>
   <v>       0.25000000 </v>
   <v>       0.25000000 </v>
  </varray>
 </kpoints>
 <parameters>
  <separator name="general" >
   <i type="string" name="SYSTEM">STF</i>
   <i type="logical" name="LCOMPAT"> F  </i>
  </separator>
  <separator name="electronic" >
   <i type="string" name="PREC">normal</i>
   <i name="ENMAX">    520.00000000</i>
   <i name="ENAUG">    605.39200000</i>
   <i name="EDIFF">      0.00010000</i>
   <i type="int" name="IALGO">    68</i>
   <i type="int" name="IWAVPR">    11</i>
   <i type="int" name="NBANDS">   768</i>
   <i name="NELECT">   1028.00000000</i>
   <i type="int" name="TURBO">     0</i>
   <i type="int" name="IRESTART">     0</i>
   <i type="int" name="NREBOOT">     0</i>
   <i type="int" name="NMIN">     0</i>
   <i name="EREF">      0.00000000</i>
   <separator name="electronic smearing" >
    <i type="int" name="ISMEAR">     0</i>
    <i name="SIGMA">      0.05000000</i>
    <i name="KSPACING">      0.50000000</i>
    <i type="logical" name="KGAMMA"> T  </i>
   </separator>
   <separator name="electronic projectors" >
    <i type="logical" name="LREAL"> T  </i>
    <v name="ROPT">     -0.00050000     -0.00050000     -0.00050000     -0.00050000</v>
    <i type="int" name="LMAXPAW">  -100</i>
    <i type="int" name="LMAXMIX">     4</i>
    <i type="logical" name="NLSPLINE"> F  </i>
   </separator>
   <separator name="electronic startup" >
    <i type="int" name="ISTART">     1</i>
    <i type="int" name="ICHARG">     0</i>
    <i type="int" name="INIWAV">     1</i>
   </separator>
   <separator name="electronic spin" >
    <i type="int" name="ISPIN">     2</i>
    <i type="logical" name="LNONCOLLINEAR"> F  </i>
    <v name="MAGMOM">      0.60000000      0.60000000      0.60000000      0.60000000      0.60000000      0.60000000      0.60000000      0.60000000      0.60000000      0.60000000      0.60000000      0.60000000      0.60000000      0.60000000      0.60000000      0.60000000      0.60000000      0.60000000      0.60000000      0.60000000
      0.60000000      0.60000000      0.60000000      0.60000000      0.60000000      0.60000000      0.60000000      0.60000000      0.60000000      0.60000000      0.60000000      0.60000000      0.60000000      0.60000000      0.60000000      0.60000000      0.60000000      0.60000000      0.60000000      0.60000000
      0.60000000      0.60000000      0.60000000      0.60000000      0.60000000      0.60000000      0.60000000      0.60000000      0.60000000      0.60000000      0.60000000      0.60000000      0.60000000      0.60000000      0.60000000      0.60000000      0.60000000      0.60000000      0.60000000      0.60000000
      5.00000000      5.00000000      5.00000000      5.00000000      0.60000000      0.60000000      0.60000000      0.60000000      0.60000000      0.60000000      0.60000000      0.60000000      0.60000000      0.60000000      0.60000000      0.60000000      0.60000000      0.60000000      0.60000000      0.60000000
      0.60000000      0.60000000      0.60000000      0.60000000      0.60000000      0.60000000      0.60000000      0.60000000      0.60000000      0.60000000      0.60000000      0.60000000      0.60000000      0.60000000      0.60000000      0.60000000      0.60000000      0.60000000      0.60000000      0.60000000
      0.60000000      0.60000000      0.60000000      0.60000000      0.60000000      0.60000000      0.60000000      0.60000000      0.60000000      0.60000000      0.60000000      0.60000000      0.60000000      0.60000000      0.60000000      0.60000000      0.60000000      0.60000000      0.60000000      0.60000000
      0.60000000      0.60000000      0.60000000      0.60000000      0.60000000      0.60000000      0.60000000      0.60000000      0.60000000      0.60000000      0.60000000      0.60000000      0.60000000      0.60000000      0.60000000      0.60000000      0.60000000      0.60000000      0.60000000      0.60000000
      0.60000000      0.60000000      0.60000000      0.60000000      0.60000000      0.60000000      0.60000000      0.60000000      0.60000000      0.60000000      0.60000000      0.60000000      0.60000000      0.60000000      0.60000000      0.60000000      0.60000000      0.60000000</v>
    <i name="NUPDOWN">     -1.00000000</i>
    <i type="logical" name="LSORBIT"> F  </i>
    <v name="SAXIS">      0.00000000      0.00000000      1.00000000</v>
    <i type="logical" name="LSPIRAL"> F  </i>
    <v name="QSPIRAL">      0.00000000      0.00000000      0.00000000</v>
    <i type="logical" name="LZEROZ"> F  </i>
   </separator>
   <separator name="electronic exchange-correlation" >
    <i type="logical" name="LASPH"> F  </i>
    <i type="logical" name="LMETAGGA"> F  </i>
   </separator>
   <separator name="electronic convergence" >
    <i type="int" name="NELM">    40</i>
    <i type="int" name="NELMDL">     0</i>
    <i type="int" name="NELMIN">     8</i>
    <i name="ENINI">    520.00000000</i>
    <separator name="electronic convergence detail" >
     <i type="logical" name="LDIAG"> T  </i>
     <i type="logical" name="LSUBROT"> F  </i>
     <i name="WEIMIN">      0.00100000</i>
     <i name="EBREAK">      0.00000003</i>
     <i name="DEPER">      0.30000000</i>
     <i type="int" name="NRMM">     4</i>
     <i name="TIME">      0.40000000</i>
    </separator>
   </separator>
   <separator name="electronic mixer" >
    <i name="AMIX">      0.40000000</i>
    <i name="BMIX">      1.00000000</i>
    <i name="AMIN">      0.10000000</i>
    <i name="AMIX_MAG">      1.60000000</i>
    <i name="BMIX_MAG">      1.00000000</i>
    <separator name="electronic mixer details" >
     <i type="int" name="IMIX">     4</i>
     <i type="logical" name="MIXFIRST"> F  </i>
     <i type="int" name="MAXMIX">   -45</i>
     <i name="WC">    100.00000000</i>
     <i type="int" name="INIMIX">     1</i>
     <i type="int" name="MIXPRE">     1</i>
     <i type="int" name="MREMOVE">     5</i>
    </separator>
   </separator>
   <separator name="electronic dipolcorrection" >
    <i type="logical" name="LDIPOL"> F  </i>
    <i type="logical" name="LMONO"> F  </i>
    <i type="int" name="IDIPOL">     0</i>
    <i name="EPSILON">      1.00000000</i>
    <v name="DIPOL">   -100.00000000   -100.00000000   -100.00000000</v>
    <i name="EFIELD">      0.00000000</i>
   </separator>
  </separator>
  <separator name="grids" >
   <i type="int" name="NGX">    64</i>
   <i type="int" name="NGY">    64</i>
   <i type="int" name="NGZ">    90</i>
   <i type="int" name="NGXF">   128</i>
   <i type="int" name="NGYF">   128</i>
   <i type="int" name="NGZF">   180</i>
   <i type="logical" name="ADDGRID"> F  </i>
  </separator>
  <separator name="ionic" >
   <i type="int" name="NSW">    30</i>
   <i type="int" name="IBRION">     2</i>
   <i type="int" name="ISIF">     3</i>
   <i name="PSTRESS">      0.00000000</i>
   <i name="EDIFFG">     -0.03000000</i>
   <i type="int" name="NFREE">     1</i>
   <i name="POTIM">      0.50000000</i>
   <i name="SMASS">     -3.00000000</i>
   <i name="SCALEE">      1.00000000</i>
  </separator>
  <separator name="ionic md" >
   <i name="TEBEG">      0.00010000</i>
   <i name="TEEND">      0.00010000</i>
   <i type="int" name="NBLOCK">     1</i>
   <i type="int" name="KBLOCK">    30</i>
   <i type="int" name="NPACO">   256</i>
   <i name="APACO">     16.00000000</i>
  </separator>
  <separator name="symmetry" >
   <i type="int" name="ISYM">     2</i>
   <i name="SYMPREC">      0.00001000</i>
  </separator>
  <separator name="dos" >
   <i type="logical" name="LORBIT"> F  </i>
   <v name="RWIGS">     -1.00000000     -1.00000000     -1.00000000     -1.00000000</v>
   <i type="int" name="NEDOS">   301</i>
   <i name="EMIN">     10.00000000</i>
   <i name="EMAX">    -10.00000000</i>
   <i name="EFERMI">      0.00000000</i>
  </separator>
  <separator name="writing" >
   <i type="int" name="NWRITE">     2</i>
   <i type="logical" name="LWAVE"> T  </i>
   <i type="logical" name="LCHARG"> T  </i>
   <i type="logical" name="LPARD"> F  </i>
   <i type="logical" name="LVTOT"> F  </i>
   <i type="logical" name="LVHAR"> F  </i>
   <i type="logical" name="LELF"> F  </i>
   <i type="logical" name="LOPTICS"> F  </i>
   <v name="STM">      0.00000000      0.00000000      0.00000000      0.00000000      0.00000000      0.00000000      0.00000000</v>
  </separator>
  <separator name="performance" >
   <i type="int" name="NPAR">     2</i>
   <i type="int" name="NSIM">     4</i>
   <i type="int" name="NBLK">    -1</i>
   <i type="logical" name="LPLANE"> T  </i>
   <i type="logical" name="LSCALAPACK"> T  </i>
   <i type="logical" name="LSCAAWARE"> F  </i>
   <i type="logical" name="LSCALU"> F  </i>
   <i type="logical" name="LASYNC"> F  </i>
   <i type="logical" name="LORBITALREAL"> F  </i>
  </separator>
  <separator name="miscellaneous" >
   <i type="int" name="IDIOT">     3</i>
   <i type="logical" name="LMUSIC"> F  </i>
   <v name="POMASS">     87.62000000     47.88000000     55.84700000     16.00000000</v>
   <v name="DARWINR">      0.00000000      0.00000000      0.00000000      0.00000000</v>
   <v name="DARWINV">      1.00000000      1.00000000      1.00000000      1.00000000</v>
   <i type="logical" name="LCORR"> T  </i>
  </separator>
  <i type="logical" name="GGA_COMPAT"> T  </i>
  <i type="logical" name="LBERRY"> F  </i>
  <i type="int" name="ICORELEVEL">     0</i>
  <i type="logical" name="LDAU"> T  </i>
  <v type="int" name="LDAUTYPE">     2</v>
  <v type="int" name="LDAUL">     0</v>
  <v name="LDAUU">      0.00000000</v>
  <v name="LDAUJ">      0.00000000</v>
  <i type="int" name="LDAUPRINT">     1</i>
  <i type="int" name="I_CONSTRAINED_M">     0</i>
  <separator name="electronic exchange-correlation" >
   <i type="string" name="GGA">--</i>
   <i type="int" name="VOSKOWN">     0</i>
   <i type="logical" name="LHFCALC"> F  </i>
   <i type="string" name="PRECFOCK"></i>
   <i type="logical" name="LSYMGRAD"> F  </i>
   <i type="logical" name="LHFONE"> F  </i>
   <i type="logical" name="LRHFCALC"> F  </i>
   <i type="logical" name="LTHOMAS"> F  </i>
   <i type="logical" name="LMODELHF"> F  </i>
   <i name="ENCUT4O">     -1.00000000</i>
   <i type="int" name="EXXOEP">     0</i>
   <i type="int" name="FOURORBIT">     0</i>
   <i name="AEXX">      0.00000000</i>
   <i name="HFALPHA">      0.00000000</i>
   <i name="MCALPHA">      0.00000000</i>
   <i name="ALDAX">      1.00000000</i>
   <i name="AGGAX">      1.00000000</i>
   <i name="ALDAC">      1.00000000</i>
   <i name="AGGAC">      1.00000000</i>
   <i type="int" name="NKREDX">     1</i>
   <i type="int" name="NKREDY">     1</i>
   <i type="int" name="NKREDZ">     1</i>
   <i type="logical" name="SHIFTRED"> F  </i>
   <i type="logical" name="ODDONLY"> F  </i>
   <i type="logical" name="EVENONLY"> F  </i>
   <i type="int" name="LMAXFOCK">     0</i>
   <i type="int" name="NMAXFOCKAE">     0</i>
   <i type="logical" name="LFOCKAEDFT"> F  </i>
   <i name="HFSCREEN">      0.00000000</i>
   <i name="HFSCREENC">      0.00000000</i>
   <i type="int" name="NBANDSGWLOW">     0</i>
  </separator>
  <separator name="vdW DFT" >
   <i type="logical" name="LUSE_VDW"> F  </i>
   <i name="Zab_VDW">     -0.84910000</i>
   <i name="PARAM1">      0.12340000</i>
   <i name="PARAM2">      1.00000000</i>
   <i name="PARAM3">      0.00000000</i>
  </separator>
  <separator name="model GW" >
   <i type="int" name="MODEL_GW">     0</i>
   <i name="MODEL_EPS0">      7.62576982</i>
   <i name="MODEL_ALPHA">      1.00000000</i>
  </separator>
  <separator name="linear response parameters" >
   <i type="logical" name="LEPSILON"> F  </i>
   <i type="logical" name="LRPA"> F  </i>
   <i type="logical" name="LNABLA"> F  </i>
   <i type="logical" name="LVEL"> F  </i>
   <i type="int" name="KINTER">     0</i>
   <i name="CSHIFT">      0.10000000</i>
   <i name="OMEGAMAX">     -1.00000000</i>
   <i name="DEG_THRESHOLD">      0.00200000</i>
  </separator>
  <separator name="orbital magnetization" >
   <i type="logical" name="NUCIND"> F  </i>
   <v name="MAGPOS">      0.00000000      0.00000000      0.00000000</v>
   <i type="logical" name="LNICSALL"> T  </i>
   <i type="logical" name="ORBITALMAG"> F  </i>
   <i type="logical" name="LMAGBLOCH"> F  </i>
   <i type="logical" name="LCHIMAG"> F  </i>
   <i type="logical" name="LGAUGE"> T  </i>
   <i type="int" name="MAGATOM">     0</i>
   <v name="MAGDIPOL">      0.00000000      0.00000000      0.00000000</v>
   <v name="AVECCONST">      0.00000000      0.00000000      0.00000000</v>
  </separator>
  <separator name="response functions" >
   <i type="logical" name="LADDER"> F  </i>
   <i type="logical" name="LFXC"> F  </i>
   <i type="logical" name="LHARTREE"> T  </i>
   <i type="int" name="IBSE">     0</i>
   <v type="int" name="KPOINT">    -1     0     0     0</v>
   <i type="logical" name="LTCTE"> F  </i>
   <i type="logical" name="LTETE"> F  </i>
   <i type="logical" name="LTRIPLET"> F  </i>
   <i type="logical" name="LFXCEPS"> F  </i>
   <i type="logical" name="LFXHEG"> F  </i>
   <i type="int" name="NATURALO">     0</i>
   <i type="logical" name="L2ORDER"> F  </i>
   <i type="logical" name="LUSEW"> F  </i>
   <i name="ENCUTGW">     -2.00000000</i>
   <i name="ENCUTGWSOFT">     -2.00000000</i>
   <i name="ENCUTLF">     -1.00000000</i>
   <i type="int" name="LMAXMP2">    -1</i>
   <i name="SCISSOR">      0.00000000</i>
   <i type="int" name="NOMEGA">     0</i>
   <i type="int" name="NOMEGAR">     0</i>
   <i type="int" name="NBANDSGW">    -1</i>
   <i type="int" name="NBANDSO">    -1</i>
   <i type="int" name="NBANDSV">    -1</i>
   <i type="int" name="NELM">    40</i>
   <i type="int" name="NELMHF">     1</i>
   <i type="int" name="DIM">     3</i>
   <i type="int" name="ANTIRES">     0</i>
   <i name="OMEGAMAX">    -30.00000000</i>
   <i name="OMEGAMIN">    -30.00000000</i>
   <i name="OMEGATL">   -200.00000000</i>
   <i type="int" name="OMEGAGRID">     0</i>
   <i name="CSHIFT">     -0.10000000</i>
   <i type="logical" name="SELFENERGY"> F  </i>
   <i type="logical" name="LSPECTRAL"> F  </i>
   <i type="logical" name="LSPECTRALGW"> F  </i>
   <i type="logical" name="LSINGLES"> F  </i>
   <i type="logical" name="LFERMIGW"> F  </i>
   <i type="logical" name="ODDONLYGW"> F  </i>
   <i type="logical" name="EVENONLYGW"> F  </i>
   <i type="int" name="NKREDLFX">     1</i>
   <i type="int" name="NKREDLFY">     1</i>
   <i type="int" name="NKREDLFZ">     1</i>
   <i type="int" name="MAXMEM">  1800</i>
   <i type="int" name="TELESCOPE">     0</i>
   <i type="int" name="TAUPAR">     1</i>
   <i type="int" name="OMEGAPAR">    -1</i>
   <i name="LAMBDA">      1.00000000</i>
  </separator>
  <separator name="External order field" >
   <i name="OFIELD_KAPPA">      0.00000000</i>
   <v name="OFIELD_K">      0.00000000      0.00000000      0.00000000</v>
   <i name="OFIELD_Q6_NEAR">      0.00000000</i>
   <i name="OFIELD_Q6_FAR">      0.00000000</i>
   <i name="OFIELD_A">      0.00000000</i>
  </separator>
 </parameters>
 <atominfo>
  <atoms>     158 </atoms>
  <types>       4 </types>
  <array name="atoms" >
   <dimension dim="1">ion</dimension>
   <field type="string">element</field>
   <field type="int">atomtype</field>
   <set>
    <rc><c>Sr</c><c>   1</c></rc>
    <rc><c>Sr</c><c>   1</c></rc>
    <rc><c>Sr</c><c>   1</c></rc>
    <rc><c>Sr</c><c>   1</c></rc>
    <rc><c>Sr</c><c>   1</c></rc>
    <rc><c>Sr</c><c>   1</c></rc>
    <rc><c>Sr</c><c>   1</c></rc>
    <rc><c>Sr</c><c>   1</c></rc>
    <rc><c>Sr</c><c>   1</c></rc>
    <rc><c>Sr</c><c>   1</c></rc>
    <rc><c>Sr</c><c>   1</c></rc>
    <rc><c>Sr</c><c>   1</c></rc>
    <rc><c>Sr</c><c>   1</c></rc>
    <rc><c>Sr</c><c>   1</c></rc>
    <rc><c>Sr</c><c>   1</c></rc>
    <rc><c>Sr</c><c>   1</c></rc>
    <rc><c>Sr</c><c>   1</c></rc>
    <rc><c>Sr</c><c>   1</c></rc>
    <rc><c>Sr</c><c>   1</c></rc>
    <rc><c>Sr</c><c>   1</c></rc>
    <rc><c>Sr</c><c>   1</c></rc>
    <rc><c>Sr</c><c>   1</c></rc>
    <rc><c>Sr</c><c>   1</c></rc>
    <rc><c>Sr</c><c>   1</c></rc>
    <rc><c>Sr</c><c>   1</c></rc>
    <rc><c>Sr</c><c>   1</c></rc>
    <rc><c>Sr</c><c>   1</c></rc>
    <rc><c>Sr</c><c>   1</c></rc>
    <rc><c>Sr</c><c>   1</c></rc>
    <rc><c>Sr</c><c>   1</c></rc>
    <rc><c>Sr</c><c>   1</c></rc>
    <rc><c>Sr</c><c>   1</c></rc>
    <rc><c>Ti</c><c>   2</c></rc>
    <rc><c>Ti</c><c>   2</c></rc>
    <rc><c>Ti</c><c>   2</c></rc>
    <rc><c>Ti</c><c>   2</c></rc>
    <rc><c>Ti</c><c>   2</c></rc>
    <rc><c>Ti</c><c>   2</c></rc>
    <rc><c>Ti</c><c>   2</c></rc>
    <rc><c>Ti</c><c>   2</c></rc>
    <rc><c>Ti</c><c>   2</c></rc>
    <rc><c>Ti</c><c>   2</c></rc>
    <rc><c>Ti</c><c>   2</c></rc>
    <rc><c>Ti</c><c>   2</c></rc>
    <rc><c>Ti</c><c>   2</c></rc>
    <rc><c>Ti</c><c>   2</c></rc>
    <rc><c>Ti</c><c>   2</c></rc>
    <rc><c>Ti</c><c>   2</c></rc>
    <rc><c>Ti</c><c>   2</c></rc>
    <rc><c>Ti</c><c>   2</c></rc>
    <rc><c>Ti</c><c>   2</c></rc>
    <rc><c>Ti</c><c>   2</c></rc>
    <rc><c>Ti</c><c>   2</c></rc>
    <rc><c>Ti</c><c>   2</c></rc>
    <rc><c>Ti</c><c>   2</c></rc>
    <rc><c>Ti</c><c>   2</c></rc>
    <rc><c>Ti</c><c>   2</c></rc>
    <rc><c>Ti</c><c>   2</c></rc>
    <rc><c>Ti</c><c>   2</c></rc>
    <rc><c>Ti</c><c>   2</c></rc>
    <rc><c>Fe</c><c>   3</c></rc>
    <rc><c>Fe</c><c>   3</c></rc>
    <rc><c>Fe</c><c>   3</c></rc>
    <rc><c>Fe</c><c>   3</c></rc>
    <rc><c>O </c><c>   4</c></rc>
    <rc><c>O </c><c>   4</c></rc>
    <rc><c>O </c><c>   4</c></rc>
    <rc><c>O </c><c>   4</c></rc>
    <rc><c>O </c><c>   4</c></rc>
    <rc><c>O </c><c>   4</c></rc>
    <rc><c>O </c><c>   4</c></rc>
    <rc><c>O </c><c>   4</c></rc>
    <rc><c>O </c><c>   4</c></rc>
    <rc><c>O </c><c>   4</c></rc>
    <rc><c>O </c><c>   4</c></rc>
    <rc><c>O </c><c>   4</c></rc>
    <rc><c>O </c><c>   4</c></rc>
    <rc><c>O </c><c>   4</c></rc>
    <rc><c>O </c><c>   4</c></rc>
    <rc><c>O </c><c>   4</c></rc>
    <rc><c>O </c><c>   4</c></rc>
    <rc><c>O </c><c>   4</c></rc>
    <rc><c>O </c><c>   4</c></rc>
    <rc><c>O </c><c>   4</c></rc>
    <rc><c>O </c><c>   4</c></rc>
    <rc><c>O </c><c>   4</c></rc>
    <rc><c>O </c><c>   4</c></rc>
    <rc><c>O </c><c>   4</c></rc>
    <rc><c>O </c><c>   4</c></rc>
    <rc><c>O </c><c>   4</c></rc>
    <rc><c>O </c><c>   4</c></rc>
    <rc><c>O </c><c>   4</c></rc>
    <rc><c>O </c><c>   4</c></rc>
    <rc><c>O </c><c>   4</c></rc>
    <rc><c>O </c><c>   4</c></rc>
    <rc><c>O </c><c>   4</c></rc>
    <rc><c>O </c><c>   4</c></rc>
    <rc><c>O </c><c>   4</c></rc>
    <rc><c>O </c><c>   4</c></rc>
    <rc><c>O </c><c>   4</c></rc>
    <rc><c>O </c><c>   4</c></rc>
    <rc><c>O </c><c>   4</c></rc>
    <rc><c>O </c><c>   4</c></rc>
    <rc><c>O </c><c>   4</c></rc>
    <rc><c>O </c><c>   4</c></rc>
    <rc><c>O </c><c>   4</c></rc>
    <rc><c>O </c><c>   4</c></rc>
    <rc><c>O </c><c>   4</c></rc>
    <rc><c>O </c><c>   4</c></rc>
    <rc><c>O </c><c>   4</c></rc>
    <rc><c>O </c><c>   4</c></rc>
    <rc><c>O </c><c>   4</c></rc>
    <rc><c>O </c><c>   4</c></rc>
    <rc><c>O </c><c>   4</c></rc>
    <rc><c>O </c><c>   4</c></rc>
    <rc><c>O </c><c>   4</c></rc>
    <rc><c>O </c><c>   4</c></rc>
    <rc><c>O </c><c>   4</c></rc>
    <rc><c>O </c><c>   4</c></rc>
    <rc><c>O </c><c>   4</c></rc>
    <rc><c>O </c><c>   4</c></rc>
    <rc><c>O </c><c>   4</c></rc>
    <rc><c>O </c><c>   4</c></rc>
    <rc><c>O </c><c>   4</c></rc>
    <rc><c>O </c><c>   4</c></rc>
    <rc><c>O </c><c>   4</c></rc>
    <rc><c>O </c><c>   4</c></rc>
    <rc><c>O </c><c>   4</c></rc>
    <rc><c>O </c><c>   4</c></rc>
    <rc><c>O </c><c>   4</c></rc>
    <rc><c>O </c><c>   4</c></rc>
    <rc><c>O </c><c>   4</c></rc>
    <rc><c>O </c><c>   4</c></rc>
    <rc><c>O </c><c>   4</c></rc>
    <rc><c>O </c><c>   4</c></rc>
    <rc><c>O </c><c>   4</c></rc>
    <rc><c>O </c><c>   4</c></rc>
    <rc><c>O </c><c>   4</c></rc>
    <rc><c>O </c><c>   4</c></rc>
    <rc><c>O </c><c>   4</c></rc>
    <rc><c>O </c><c>   4</c></rc>
    <rc><c>O </c><c>   4</c></rc>
    <rc><c>O </c><c>   4</c></rc>
    <rc><c>O </c><c>   4</c></rc>
    <rc><c>O </c><c>   4</c></rc>
    <rc><c>O </c><c>   4</c></rc>
    <rc><c>O </c><c>   4</c></rc>
    <rc><c>O </c><c>   4</c></rc>
    <rc><c>O </c><c>   4</c></rc>
    <rc><c>O </c><c>   4</c></rc>
    <rc><c>O </c><c>   4</c></rc>
    <rc><c>O </c><c>   4</c></rc>
    <rc><c>O </c><c>   4</c></rc>
    <rc><c>O </c><c>   4</c></rc>
    <rc><c>O </c><c>   4</c></rc>
    <rc><c>O </c><c>   4</c></rc>
    <rc><c>O </c><c>   4</c></rc>
    <rc><c>O </c><c>   4</c></rc>
   </set>
  </array>
  <array name="atomtypes" >
   <dimension dim="1">type</dimension>
   <field type="int">atomspertype</field>
   <field type="string">element</field>
   <field>mass</field>
   <field>valence</field>
   <field type="string">pseudopotential</field>
   <set>
    <rc><c>  32</c><c>Sr</c><c>     87.62000000</c><c>     10.00000000</c><c>  PAW_PBE Sr_sv 07Sep2000               </c></rc>
    <rc><c>  28</c><c>Ti</c><c>     47.88000000</c><c>      4.00000000</c><c>  PAW_PBE Ti 08Apr2002                  </c></rc>
    <rc><c>   4</c><c>Fe</c><c>     55.84700000</c><c>      8.00000000</c><c>  PAW_PBE Fe 06Sep2000                  </c></rc>
    <rc><c>  94</c><c>O </c><c>     16.00000000</c><c>      6.00000000</c><c>  PAW_PBE O 08Apr2002                   </c></rc>
   </set>
  </array>
 </atominfo>
 <structure name="initialpos" >
  <crystal>
   <varray name="basis" >
    <v>      11.22184051       0.00087268      -0.00000647 </v>
    <v>       0.00087263      11.21845254       0.00109032 </v>
    <v>      -0.00000844       0.00156762      15.95116799 </v>
   </varray>
   <i name="volume">   2008.11938689 </i>
   <varray name="rec_basis" >
    <v>       0.08911194      -0.00000693       0.00000005 </v>
    <v>      -0.00000693       0.08913886      -0.00000876 </v>
    <v>       0.00000004      -0.00000609       0.06269133 </v>
   </varray>
  </crystal>
  <varray name="positions" >
   <v>       0.99989027       0.25015910       0.12662188 </v>
   <v>       0.00700478       0.25318346       0.61843919 </v>
   <v>       0.00323571       0.75032053       0.12773187 </v>
   <v>       0.99332923       0.74750671       0.61808797 </v>
   <v>       0.49920601       0.24877743       0.12799693 </v>
   <v>       0.49490625       0.25002579       0.61760212 </v>
   <v>       0.49691074       0.75015913       0.12736465 </v>
   <v>       0.50786116       0.75084975       0.61798697 </v>
   <v>       0.00234328       0.25283668       0.37779082 </v>
   <v>       0.00485402       0.25178464       0.87759574 </v>
   <v>       0.00339551       0.74876084       0.37455690 </v>
   <v>       0.99247693       0.74939646       0.87928925 </v>
   <v>       0.49768358       0.24892783       0.37461230 </v>
   <v>       0.49664115       0.24966166       0.88051702 </v>
   <v>       0.49685699       0.75030714       0.37433120 </v>
   <v>       0.50803091       0.75059902       0.87983735 </v>
   <v>       0.25044280       0.99856197       0.12835361 </v>
   <v>       0.25159184       0.00507613       0.61773621 </v>
   <v>       0.24930726       0.50196391       0.12778153 </v>
   <v>       0.24180570       0.48915277       0.61772692 </v>
   <v>       0.74887497       0.00053011       0.12624112 </v>
   <v>       0.74955043       0.99120659       0.62004140 </v>
   <v>       0.75027494       0.49898156       0.12735300 </v>
   <v>       0.75684363       0.50499894       0.61703104 </v>
   <v>       0.25111608       0.00037678       0.37439761 </v>
   <v>       0.25080364       0.00291602       0.88051489 </v>
   <v>       0.24702756       0.49951561       0.37672659 </v>
   <v>       0.24595288       0.49276476       0.87848815 </v>
   <v>       0.74877433       0.00064182       0.37524273 </v>
   <v>       0.74925494       0.99087901       0.87817519 </v>
   <v>       0.75217656       0.49922606       0.37498655 </v>
   <v>       0.75465912       0.50522130       0.88027154 </v>
   <v>       0.00001430       0.00010699       0.99997348 </v>
   <v>       0.00141902       0.00118306       0.49998558 </v>
   <v>       0.00030559       0.49998859       0.00080565 </v>
   <v>       0.49941262       0.99940611       0.99945291 </v>
   <v>       0.49861109       0.00083250       0.50088833 </v>
   <v>       0.50073045       0.49856140       0.00092484 </v>
   <v>       0.49972901       0.49772885       0.49931580 </v>
   <v>       0.25001442       0.24964416       0.00190854 </v>
   <v>       0.25167342       0.75067489       0.00075307 </v>
   <v>       0.25082325       0.74966584       0.49949755 </v>
   <v>       0.74914636       0.25057961       0.99985352 </v>
   <v>       0.75019796       0.25172800       0.50032275 </v>
   <v>       0.75018984       0.74956922       0.00271650 </v>
   <v>       0.75137917       0.74863234       0.49713958 </v>
   <v>       0.24986130       0.25025242       0.25186176 </v>
   <v>       0.25054317       0.24565931       0.74901073 </v>
   <v>       0.23255483       0.74690049       0.74984070 </v>
   <v>       0.75025458       0.24909550       0.25054039 </v>
   <v>       0.75917233       0.23612428       0.74983567 </v>
   <v>       0.75043102       0.74969992       0.25013512 </v>
   <v>       0.75006841       0.74902080       0.74984919 </v>
   <v>       0.00087380       0.99959340       0.25050103 </v>
   <v>       0.00479205       0.99777250       0.74956764 </v>
   <v>       0.00193151       0.50202882       0.25186211 </v>
   <v>       0.99536518       0.49484455       0.74894133 </v>
   <v>       0.49983789       0.99898127       0.25017753 </v>
   <v>       0.49795678       0.50166781       0.25056650 </v>
   <v>       0.48561754       0.50918703       0.74969997 </v>
   <v>       0.00131328       0.49925015       0.49911946 </v>
   <v>       0.24928493       0.25064700       0.49823667 </v>
   <v>       0.25002307       0.74927729       0.25088397 </v>
   <v>       0.50852255       0.01668089       0.74989649 </v>
   <v>       0.10957117       0.14005299       0.24925900 </v>
   <v>       0.10110366       0.14532764       0.75033619 </v>
   <v>       0.10962234       0.63891901       0.24867920 </v>
   <v>       0.10355343       0.64682201       0.75086608 </v>
   <v>       0.61082232       0.14041509       0.24936612 </v>
   <v>       0.60302976       0.15788333       0.75017568 </v>
   <v>       0.61074422       0.63976572       0.24906644 </v>
   <v>       0.61706616       0.62481301       0.75123626 </v>
   <v>       0.39066137       0.36045894       0.24886809 </v>
   <v>       0.39492687       0.35859100       0.75093690 </v>
   <v>       0.39060976       0.86279218       0.24943602 </v>
   <v>       0.88898655       0.36001365       0.24918858 </v>
   <v>       0.88431821       0.35922557       0.75096282 </v>
   <v>       0.88969327       0.85965790       0.24942368 </v>
   <v>       0.89123921       0.85766030       0.75041637 </v>
   <v>       0.36095668       0.11057112       0.24863776 </v>
   <v>       0.35227976       0.10194663       0.75119002 </v>
   <v>       0.36216120       0.60951804       0.25023297 </v>
   <v>       0.36043382       0.61755723       0.75037195 </v>
   <v>       0.85973988       0.10924394       0.24874436 </v>
   <v>       0.85127461       0.10038097       0.75059754 </v>
   <v>       0.85950352       0.61002725       0.24869918 </v>
   <v>       0.85958189       0.60903927       0.75125738 </v>
   <v>       0.14010692       0.38948241       0.24878199 </v>
   <v>       0.14064601       0.39358723       0.75140524 </v>
   <v>       0.13757329       0.89064723       0.24989754 </v>
   <v>       0.14996344       0.89941458       0.75025933 </v>
   <v>       0.63980204       0.38894701       0.24963541 </v>
   <v>       0.64067410       0.88983887       0.24904451 </v>
   <v>       0.62876693       0.88002906       0.75071929 </v>
   <v>       0.36107166       0.38958772       0.99856224 </v>
   <v>       0.36554525       0.38891320       0.50187330 </v>
   <v>       0.36167293       0.88952469       0.00421964 </v>
   <v>       0.36354035       0.88779311       0.49576538 </v>
   <v>       0.86048446       0.38931373       0.00031564 </v>
   <v>       0.86066423       0.38549575       0.49905611 </v>
   <v>       0.86087166       0.88881597       0.99969830 </v>
   <v>       0.86209120       0.88715313       0.50013945 </v>
   <v>       0.13793972       0.11143499       0.00004061 </v>
   <v>       0.13464955       0.11168644       0.49980851 </v>
   <v>       0.14005856       0.61358805       0.99224183 </v>
   <v>       0.13948508       0.61781102       0.50831296 </v>
   <v>       0.63895260       0.11041053       0.99256285 </v>
   <v>       0.63768841       0.11136783       0.50717769 </v>
   <v>       0.63919481       0.61054200       0.99885954 </v>
   <v>       0.63765648       0.61212687       0.50121138 </v>
   <v>       0.11137708       0.36174380       0.99958822 </v>
   <v>       0.11421242       0.36448767       0.50040287 </v>
   <v>       0.11172034       0.86106594       0.99698736 </v>
   <v>       0.11281358       0.86292887       0.50283059 </v>
   <v>       0.60990414       0.35980327       0.00454059 </v>
   <v>       0.61190892       0.36108041       0.49544413 </v>
   <v>       0.61121409       0.86016073       0.00015128 </v>
   <v>       0.61283433       0.86156413       0.49969556 </v>
   <v>       0.38903899       0.13881082       0.99916973 </v>
   <v>       0.38855199       0.13572681       0.50073309 </v>
   <v>       0.39053467       0.63745696       0.99277315 </v>
   <v>       0.38990193       0.63663259       0.50670967 </v>
   <v>       0.88717176       0.13984880       0.99335138 </v>
   <v>       0.88499616       0.13732660       0.50684407 </v>
   <v>       0.88863944       0.63898292       0.99996740 </v>
   <v>       0.88564050       0.63778978       0.49979518 </v>
   <v>       0.99867024       0.00145400       0.12329885 </v>
   <v>       0.99863854       0.99777824       0.62690862 </v>
   <v>       0.00247021       0.50170812       0.12326195 </v>
   <v>       0.99809600       0.49946038       0.62779808 </v>
   <v>       0.50420364       0.00338668       0.12368024 </v>
   <v>       0.49219622       0.98899370       0.62864263 </v>
   <v>       0.49845033       0.50299772       0.12372655 </v>
   <v>       0.51466223       0.48735580       0.63008348 </v>
   <v>       0.99722185       0.00163578       0.37570041 </v>
   <v>       0.99941317       0.99822681       0.87370656 </v>
   <v>       0.00186686       0.50254827       0.37367423 </v>
   <v>       0.99848660       0.49903745       0.87489076 </v>
   <v>       0.50421583       0.00306663       0.37491694 </v>
   <v>       0.49213002       0.98924321       0.87231416 </v>
   <v>       0.49948738       0.50267498       0.37555993 </v>
   <v>       0.51295300       0.48702596       0.87081334 </v>
   <v>       0.25181151       0.24950306       0.37298922 </v>
   <v>       0.24857422       0.25058268       0.87544475 </v>
   <v>       0.25023005       0.74634952       0.37807339 </v>
   <v>       0.26855011       0.76679953       0.86766275 </v>
   <v>       0.75096081       0.24414965       0.37577726 </v>
   <v>       0.73848658       0.26721283       0.86993559 </v>
   <v>       0.74938791       0.74938051       0.37401218 </v>
   <v>       0.75073965       0.75043798       0.87574066 </v>
   <v>       0.25061179       0.24992815       0.12418473 </v>
   <v>       0.24931603       0.25004009       0.62747531 </v>
   <v>       0.25072821       0.74586711       0.12142857 </v>
   <v>       0.26861543       0.76726909       0.63257359 </v>
   <v>       0.75092984       0.24545896       0.12300718 </v>
   <v>       0.73901853       0.26689028       0.63057125 </v>
   <v>       0.74997107       0.74960717       0.12473117 </v>
   <v>       0.75033248       0.75007083       0.62539950 </v>
  </varray>
 </structure>
 <calculation>
  <scstep>
   <time name="dav">  583.04  583.16</time>
   <time name="total">  590.28  590.47</time>
   <energy>
    <i name="alphaZ">   5625.30183439 </i>
    <i name="ewald"> -60894.79670918 </i>
    <i name="hartreedc"> -15587.51356779 </i>
    <i name="XCdc">   2852.15497567 </i>
    <i name="pawpsdc"> 111970.45761599 </i>
    <i name="pawaedc">-110718.42874651 </i>
    <i name="eentropy">     -0.00000000 </i>
    <i name="bandstr">  -7049.62472573 </i>
    <i name="atom">  72650.08363186 </i>
    <i name="e_fr_energy">  -1152.36569131 </i>
    <i name="e_wo_entrp">  -1152.36569131 </i>
    <i name="e_0_energy">  -1152.36569131 </i>
   </energy>
  </scstep>
  <scstep>
   <time name="diag">   64.85   64.86</time>
   <time name="diis">   63.10   63.10</time>
   <time name="orth">   33.11   33.12</time>
   <time name="total">  168.34  168.41</time>
   <energy>
    <i name="e_fr_energy">  -1152.36569181 </i>
    <i name="e_wo_entrp">  -1152.36569181 </i>
    <i name="e_0_energy">  -1152.36569181 </i>
   </energy>
  </scstep>
  <scstep>
   <time name="diag">   64.99   64.99</time>
   <time name="diis">   61.40   61.40</time>
   <time name="orth">   33.17   33.17</time>
   <time name="total">  166.81  166.94</time>
   <energy>
    <i name="e_fr_energy">  -1152.36569227 </i>
    <i name="e_wo_entrp">  -1152.36569227 </i>
    <i name="e_0_energy">  -1152.36569227 </i>
   </energy>
  </scstep>
  <scstep>
   <time name="diag">   65.02   65.02</time>
   <time name="diis">   52.68   52.68</time>
   <time name="orth">   33.29   33.30</time>
   <time name="total">  158.23  158.29</time>
   <energy>
    <i name="e_fr_energy">  -1152.36569292 </i>
    <i name="e_wo_entrp">  -1152.36569292 </i>
    <i name="e_0_energy">  -1152.36569292 </i>
   </energy>
  </scstep>
  <scstep>
   <time name="diag">   65.08   65.08</time>
   <time name="diis">   51.60   51.61</time>
   <time name="orth">   33.17   33.17</time>
   <time name="total">  157.12  157.20</time>
   <energy>
    <i name="e_fr_energy">  -1152.36569354 </i>
    <i name="e_wo_entrp">  -1152.36569354 </i>
    <i name="e_0_energy">  -1152.36569354 </i>
   </energy>
  </scstep>
  <scstep>
   <time name="diag">   65.00   65.00</time>
   <time name="diis">   48.32   48.32</time>
   <time name="orth">   33.26   33.27</time>
   <time name="total">  153.82  153.93</time>
   <energy>
    <i name="e_fr_energy">  -1152.36569388 </i>
    <i name="e_wo_entrp">  -1152.36569388 </i>
    <i name="e_0_energy">  -1152.36569388 </i>
   </energy>
  </scstep>
  <scstep>
   <time name="diag">   65.23   65.24</time>
   <time name="diis">   46.52   46.52</time>
   <time name="orth">   33.45   33.45</time>
   <time name="total">  152.43  152.57</time>
   <energy>
    <i name="e_fr_energy">  -1152.36569403 </i>
    <i name="e_wo_entrp">  -1152.36569403 </i>
    <i name="e_0_energy">  -1152.36569403 </i>
   </energy>
  </scstep>
  <scstep>
   <time name="diag">   65.03   65.03</time>
   <time name="diis">   44.01   44.01</time>
   <time name="orth">   33.44   33.44</time>
   <time name="total">  143.53  143.59</time>
   <energy>
    <i name="alphaZ">   5625.30183439 </i>
    <i name="ewald"> -60894.79670918 </i>
    <i name="hartreedc"> -15587.50631195 </i>
    <i name="XCdc">   2852.15401002 </i>
    <i name="pawpsdc"> 111968.76761802 </i>
    <i name="pawaedc">-110716.71717866 </i>
    <i name="eentropy">     -0.00000000 </i>
    <i name="bandstr">  -7049.65258858 </i>
    <i name="atom">  72650.08363186 </i>
    <i name="e_fr_energy">  -1152.36569408 </i>
    <i name="e_wo_entrp">  -1152.36569408 </i>
    <i name="e_0_energy">  -1152.36569408 </i>
   </energy>
  </scstep>
  <structure>
   <crystal>
    <varray name="basis" >
     <v>      11.22184051       0.00087268      -0.00000647 </v>
     <v>       0.00087263      11.21845254       0.00109032 </v>
     <v>      -0.00000844       0.00156762      15.95116799 </v>
    </varray>
    <i name="volume">   2008.11938689 </i>
    <varray name="rec_basis" >
     <v>       0.08911194      -0.00000693       0.00000005 </v>
     <v>      -0.00000693       0.08913886      -0.00000876 </v>
     <v>       0.00000004      -0.00000609       0.06269133 </v>
    </varray>
   </crystal>
   <varray name="positions" >
    <v>       0.99989027       0.25015910       0.12662188 </v>
    <v>       0.00700478       0.25318346       0.61843919 </v>
    <v>       0.00323571       0.75032053       0.12773187 </v>
    <v>       0.99332923       0.74750671       0.61808797 </v>
    <v>       0.49920601       0.24877743       0.12799693 </v>
    <v>       0.49490625       0.25002579       0.61760212 </v>
    <v>       0.49691074       0.75015913       0.12736465 </v>
    <v>       0.50786116       0.75084975       0.61798697 </v>
    <v>       0.00234328       0.25283668       0.37779082 </v>
    <v>       0.00485402       0.25178464       0.87759574 </v>
    <v>       0.00339551       0.74876084       0.37455690 </v>
    <v>       0.99247693       0.74939646       0.87928925 </v>
    <v>       0.49768358       0.24892783       0.37461230 </v>
    <v>       0.49664115       0.24966166       0.88051702 </v>
    <v>       0.49685699       0.75030714       0.37433120 </v>
    <v>       0.50803091       0.75059902       0.87983735 </v>
    <v>       0.25044280       0.99856197       0.12835361 </v>
    <v>       0.25159184       0.00507613       0.61773621 </v>
    <v>       0.24930726       0.50196391       0.12778153 </v>
    <v>       0.24180570       0.48915277       0.61772692 </v>
    <v>       0.74887497       0.00053011       0.12624112 </v>
    <v>       0.74955043       0.99120659       0.62004140 </v>
    <v>       0.75027494       0.49898156       0.12735300 </v>
    <v>       0.75684363       0.50499894       0.61703104 </v>
    <v>       0.25111608       0.00037678       0.37439761 </v>
    <v>       0.25080364       0.00291602       0.88051489 </v>
    <v>       0.24702756       0.49951561       0.37672659 </v>
    <v>       0.24595288       0.49276476       0.87848815 </v>
    <v>       0.74877433       0.00064182       0.37524273 </v>
    <v>       0.74925494       0.99087901       0.87817519 </v>
    <v>       0.75217656       0.49922606       0.37498655 </v>
    <v>       0.75465912       0.50522130       0.88027154 </v>
    <v>       0.00001430       0.00010699       0.99997348 </v>
    <v>       0.00141902       0.00118306       0.49998558 </v>
    <v>       0.00030559       0.49998859       0.00080565 </v>
    <v>       0.49941262       0.99940611       0.99945291 </v>
    <v>       0.49861109       0.00083250       0.50088833 </v>
    <v>       0.50073045       0.49856140       0.00092484 </v>
    <v>       0.49972901       0.49772885       0.49931580 </v>
    <v>       0.25001442       0.24964416       0.00190854 </v>
    <v>       0.25167342       0.75067489       0.00075307 </v>
    <v>       0.25082325       0.74966584       0.49949755 </v>
    <v>       0.74914636       0.25057961       0.99985352 </v>
    <v>       0.75019796       0.25172800       0.50032275 </v>
    <v>       0.75018984       0.74956922       0.00271650 </v>
    <v>       0.75137917       0.74863234       0.49713958 </v>
    <v>       0.24986130       0.25025242       0.25186176 </v>
    <v>       0.25054317       0.24565931       0.74901073 </v>
    <v>       0.23255483       0.74690049       0.74984070 </v>
    <v>       0.75025458       0.24909550       0.25054039 </v>
    <v>       0.75917233       0.23612428       0.74983567 </v>
    <v>       0.75043102       0.74969992       0.25013512 </v>
    <v>       0.75006841       0.74902080       0.74984919 </v>
    <v>       0.00087380       0.99959340       0.25050103 </v>
    <v>       0.00479205       0.99777250       0.74956764 </v>
    <v>       0.00193151       0.50202882       0.25186211 </v>
    <v>       0.99536518       0.49484455       0.74894133 </v>
    <v>       0.49983789       0.99898127       0.25017753 </v>
    <v>       0.49795678       0.50166781       0.25056650 </v>
    <v>       0.48561754       0.50918703       0.74969997 </v>
    <v>       0.00131328       0.49925015       0.49911946 </v>
    <v>       0.24928493       0.25064700       0.49823667 </v>
    <v>       0.25002307       0.74927729       0.25088397 </v>
    <v>       0.50852255       0.01668089       0.74989649 </v>
    <v>       0.10957117       0.14005299       0.24925900 </v>
    <v>       0.10110366       0.14532764       0.75033619 </v>
    <v>       0.10962234       0.63891901       0.24867920 </v>
    <v>       0.10355343       0.64682201       0.75086608 </v>
    <v>       0.61082232       0.14041509       0.24936612 </v>
    <v>       0.60302976       0.15788333       0.75017568 </v>
    <v>       0.61074422       0.63976572       0.24906644 </v>
    <v>       0.61706616       0.62481301       0.75123626 </v>
    <v>       0.39066137       0.36045894       0.24886809 </v>
    <v>       0.39492687       0.35859100       0.75093690 </v>
    <v>       0.39060976       0.86279218       0.24943602 </v>
    <v>       0.88898655       0.36001365       0.24918858 </v>
    <v>       0.88431821       0.35922557       0.75096282 </v>
    <v>       0.88969327       0.85965790       0.24942368 </v>
    <v>       0.89123921       0.85766030       0.75041637 </v>
    <v>       0.36095668       0.11057112       0.24863776 </v>
    <v>       0.35227976       0.10194663       0.75119002 </v>
    <v>       0.36216120       0.60951804       0.25023297 </v>
    <v>       0.36043382       0.61755723       0.75037195 </v>
    <v>       0.85973988       0.10924394       0.24874436 </v>
    <v>       0.85127461       0.10038097       0.75059754 </v>
    <v>       0.85950352       0.61002725       0.24869918 </v>
    <v>       0.85958189       0.60903927       0.75125738 </v>
    <v>       0.14010692       0.38948241       0.24878199 </v>
    <v>       0.14064601       0.39358723       0.75140524 </v>
    <v>       0.13757329       0.89064723       0.24989754 </v>
    <v>       0.14996344       0.89941458       0.75025933 </v>
    <v>       0.63980204       0.38894701       0.24963541 </v>
    <v>       0.64067410       0.88983887       0.24904451 </v>
    <v>       0.62876693       0.88002906       0.75071929 </v>
    <v>       0.36107166       0.38958772       0.99856224 </v>
    <v>       0.36554525       0.38891320       0.50187330 </v>
    <v>       0.36167293       0.88952469       0.00421964 </v>
    <v>       0.36354035       0.88779311       0.49576538 </v>
    <v>       0.86048446       0.38931373       0.00031564 </v>
    <v>       0.86066423       0.38549575       0.49905611 </v>
    <v>       0.86087166       0.88881597       0.99969830 </v>
    <v>       0.86209120       0.88715313       0.50013945 </v>
    <v>       0.13793972       0.11143499       0.00004061 </v>
    <v>       0.13464955       0.11168644       0.49980851 </v>
    <v>       0.14005856       0.61358805       0.99224183 </v>
    <v>       0.13948508       0.61781102       0.50831296 </v>
    <v>       0.63895260       0.11041053       0.99256285 </v>
    <v>       0.63768841       0.11136783       0.50717769 </v>
    <v>       0.63919481       0.61054200       0.99885954 </v>
    <v>       0.63765648       0.61212687       0.50121138 </v>
    <v>       0.11137708       0.36174380       0.99958822 </v>
    <v>       0.11421242       0.36448767       0.50040287 </v>
    <v>       0.11172034       0.86106594       0.99698736 </v>
    <v>       0.11281358       0.86292887       0.50283059 </v>
    <v>       0.60990414       0.35980327       0.00454059 </v>
    <v>       0.61190892       0.36108041       0.49544413 </v>
    <v>       0.61121409       0.86016073       0.00015128 </v>
    <v>       0.61283433       0.86156413       0.49969556 </v>
    <v>       0.38903899       0.13881082       0.99916973 </v>
    <v>       0.38855199       0.13572681       0.50073309 </v>
    <v>       0.39053467       0.63745696       0.99277315 </v>
    <v>       0.38990193       0.63663259       0.50670967 </v>
    <v>       0.88717176       0.13984880       0.99335138 </v>
    <v>       0.88499616       0.13732660       0.50684407 </v>
    <v>       0.88863944       0.63898292       0.99996740 </v>
    <v>       0.88564050       0.63778978       0.49979518 </v>
    <v>       0.99867024       0.00145400       0.12329885 </v>
    <v>       0.99863854       0.99777824       0.62690862 </v>
    <v>       0.00247021       0.50170812       0.12326195 </v>
    <v>       0.99809600       0.49946038       0.62779808 </v>
    <v>       0.50420364       0.00338668       0.12368024 </v>
    <v>       0.49219622       0.98899370       0.62864263 </v>
    <v>       0.49845033       0.50299772       0.12372655 </v>
    <v>       0.51466223       0.48735580       0.63008348 </v>
    <v>       0.99722185       0.00163578       0.37570041 </v>
    <v>       0.99941317       0.99822681       0.87370656 </v>
    <v>       0.00186686       0.50254827       0.37367423 </v>
    <v>       0.99848660       0.49903745       0.87489076 </v>
    <v>       0.50421583       0.00306663       0.37491694 </v>
    <v>       0.49213002       0.98924321       0.87231416 </v>
    <v>       0.49948738       0.50267498       0.37555993 </v>
    <v>       0.51295300       0.48702596       0.87081334 </v>
    <v>       0.25181151       0.24950306       0.37298922 </v>
    <v>       0.24857422       0.25058268       0.87544475 </v>
    <v>       0.25023005       0.74634952       0.37807339 </v>
    <v>       0.26855011       0.76679953       0.86766275 </v>
    <v>       0.75096081       0.24414965       0.37577726 </v>
    <v>       0.73848658       0.26721283       0.86993559 </v>
    <v>       0.74938791       0.74938051       0.37401218 </v>
    <v>       0.75073965       0.75043798       0.87574066 </v>
    <v>       0.25061179       0.24992815       0.12418473 </v>
    <v>       0.24931603       0.25004009       0.62747531 </v>
    <v>       0.25072821       0.74586711       0.12142857 </v>
    <v>       0.26861543       0.76726909       0.63257359 </v>
    <v>       0.75092984       0.24545896       0.12300718 </v>
    <v>       0.73901853       0.26689028       0.63057125 </v>
    <v>       0.74997107       0.74960717       0.12473117 </v>
    <v>       0.75033248       0.75007083       0.62539950 </v>
   </varray>
  </structure>
  <varray name="forces" >
   <v>      -0.00188494       0.00346103       0.00169677 </v>
   <v>       0.00328664       0.01102554       0.00166032 </v>
   <v>       0.01083413       0.00233003       0.00681569 </v>
   <v>       0.00245843       0.00355868       0.02124884 </v>
   <v>      -0.00309574       0.00011219      -0.00121304 </v>
   <v>       0.00012460       0.00585133       0.02212574 </v>
   <v>      -0.00653794      -0.00576662       0.00961937 </v>
   <v>       0.00419477      -0.00202351       0.01591888 </v>
   <v>      -0.01138360      -0.00166590       0.00229952 </v>
   <v>       0.00346065      -0.00853962      -0.01476363 </v>
   <v>       0.01381008      -0.00479468       0.00371059 </v>
   <v>       0.00778833       0.01599438      -0.01483568 </v>
   <v>      -0.00626845      -0.00636994       0.00322546 </v>
   <v>       0.00236303      -0.00092686      -0.03205504 </v>
   <v>      -0.00233465      -0.00099222      -0.01164644 </v>
   <v>      -0.00202128      -0.00970724      -0.00113327 </v>
   <v>      -0.01071661      -0.00700492       0.00533021 </v>
   <v>      -0.00336395      -0.00725694       0.01808688 </v>
   <v>       0.01247132       0.01412578       0.00571624 </v>
   <v>       0.01491333       0.01234886       0.01327126 </v>
   <v>       0.00951435       0.00555520       0.00356701 </v>
   <v>       0.00599372      -0.00295716       0.01833747 </v>
   <v>      -0.00817526      -0.00550669       0.00466396 </v>
   <v>       0.02173546       0.02196466      -0.00222615 </v>
   <v>      -0.00952583       0.00150421       0.00014485 </v>
   <v>      -0.01095438       0.00302742      -0.02706102 </v>
   <v>       0.01526363       0.00564899       0.00170043 </v>
   <v>       0.00786649       0.01007444      -0.00837160 </v>
   <v>       0.01008886       0.00643320      -0.01205225 </v>
   <v>       0.00432157       0.00211884      -0.01515761 </v>
   <v>      -0.00400379      -0.00812155       0.00479393 </v>
   <v>       0.00970410       0.02284328      -0.00473334 </v>
   <v>      -0.00765823      -0.03557353       0.02854105 </v>
   <v>      -0.00308701       0.00619529      -0.02054745 </v>
   <v>       0.01043688       0.02114709       0.03527124 </v>
   <v>       0.00618750       0.00442345       0.00138318 </v>
   <v>      -0.02747550       0.00798632      -0.02399124 </v>
   <v>      -0.02018317       0.02533927       0.00948175 </v>
   <v>      -0.00826277       0.00531354      -0.01930329 </v>
   <v>       0.01253225      -0.00031819       0.01145506 </v>
   <v>      -0.00492420      -0.01107588       0.06082166 </v>
   <v>      -0.00992833      -0.00375987      -0.00580556 </v>
   <v>       0.00032103      -0.02902193      -0.00946746 </v>
   <v>       0.01653274       0.00371005       0.00311170 </v>
   <v>      -0.02223362       0.02150832       0.02958655 </v>
   <v>       0.00253579       0.00370861      -0.00741728 </v>
   <v>       0.00361932      -0.00478434      -0.01220447 </v>
   <v>       0.02183825      -0.00207480      -0.00408413 </v>
   <v>      -0.00194656       0.01258607      -0.05522049 </v>
   <v>       0.00574210      -0.01352605       0.02291447 </v>
   <v>       0.01932256      -0.03565722      -0.01737867 </v>
   <v>      -0.01972531       0.00756867      -0.01477929 </v>
   <v>      -0.00656917       0.02792204      -0.03468118 </v>
   <v>       0.01515864      -0.02547613       0.01927467 </v>
   <v>      -0.01201615      -0.02378324      -0.00308032 </v>
   <v>       0.01797978       0.00788553       0.01196495 </v>
   <v>      -0.01117276      -0.00615080      -0.04397324 </v>
   <v>      -0.00942964      -0.01944873       0.02348510 </v>
   <v>      -0.01793895       0.02554287       0.01046300 </v>
   <v>      -0.01292847      -0.00053600       0.00391951 </v>
   <v>       0.00350458       0.01113734      -0.00125571 </v>
   <v>       0.00627936      -0.00895402      -0.00657998 </v>
   <v>       0.00085356       0.00468883       0.00092059 </v>
   <v>       0.00444939       0.00467319      -0.00781964 </v>
   <v>       0.01044618       0.00915708      -0.00083857 </v>
   <v>       0.03805163       0.00536818      -0.00144137 </v>
   <v>      -0.02432775      -0.01095745       0.00410384 </v>
   <v>       0.00138330      -0.01670771       0.00559885 </v>
   <v>       0.01113648       0.01399780      -0.00348931 </v>
   <v>      -0.00889441      -0.02469228      -0.00222356 </v>
   <v>       0.01253737       0.00309728       0.00706993 </v>
   <v>       0.01449355      -0.00171863       0.00714983 </v>
   <v>      -0.01603273      -0.01215087       0.00440611 </v>
   <v>       0.02608252      -0.01322277      -0.00423642 </v>
   <v>       0.00293978       0.00340862       0.00401065 </v>
   <v>      -0.00522462       0.00218550      -0.00079807 </v>
   <v>       0.01785304       0.01985941      -0.00502140 </v>
   <v>      -0.00602652      -0.00712237       0.00603072 </v>
   <v>      -0.02394616      -0.00866911       0.01162332 </v>
   <v>       0.00907880       0.01818087      -0.00220930 </v>
   <v>       0.00844842      -0.00148693      -0.00918515 </v>
   <v>      -0.01043738      -0.01091106      -0.00098464 </v>
   <v>       0.02129022       0.00892426       0.00239049 </v>
   <v>      -0.02073053       0.01579258       0.00205477 </v>
   <v>      -0.00708371       0.03483370       0.00332220 </v>
   <v>       0.00379786      -0.01099673       0.00425191 </v>
   <v>       0.00289254      -0.01816013       0.00833055 </v>
   <v>      -0.01222128      -0.00346894       0.00421855 </v>
   <v>       0.00239018      -0.01546287      -0.00287380 </v>
   <v>      -0.00063207       0.00828211      -0.00011361 </v>
   <v>      -0.01263391      -0.03286333       0.00303123 </v>
   <v>       0.02015426      -0.00630195      -0.00040739 </v>
   <v>       0.00211576      -0.00517686       0.00618215 </v>
   <v>      -0.01307096      -0.00215008       0.00768812 </v>
   <v>       0.00265904      -0.00952920      -0.00360938 </v>
   <v>       0.00788398      -0.01019228      -0.00692445 </v>
   <v>       0.00895472       0.00371222      -0.00325079 </v>
   <v>       0.01426222      -0.01111705      -0.01059062 </v>
   <v>       0.00008120      -0.00078992      -0.00844561 </v>
   <v>      -0.00480984      -0.01511800      -0.00101341 </v>
   <v>       0.00106371      -0.00683440       0.00060960 </v>
   <v>      -0.00198348      -0.01945940      -0.01003041 </v>
   <v>      -0.00265543       0.01723487      -0.00402948 </v>
   <v>      -0.01971157       0.01747269      -0.00974817 </v>
   <v>      -0.01495294      -0.01972808      -0.00823702 </v>
   <v>      -0.00119866      -0.00620375      -0.00579528 </v>
   <v>       0.00159157       0.01994083       0.00619661 </v>
   <v>       0.00481210       0.01973551      -0.00649953 </v>
   <v>       0.00161468       0.00628802      -0.00342365 </v>
   <v>      -0.00714154       0.01516067      -0.00476894 </v>
   <v>      -0.00246376       0.01666702       0.00333544 </v>
   <v>       0.02689544       0.01289608      -0.01833194 </v>
   <v>      -0.00352928      -0.00058538      -0.01193140 </v>
   <v>       0.00552778      -0.00217175       0.00674099 </v>
   <v>       0.00704392      -0.01512440      -0.00568901 </v>
   <v>       0.00850971      -0.00466638      -0.01201191 </v>
   <v>       0.01255480       0.01775180      -0.00354533 </v>
   <v>       0.02068271       0.02001157      -0.00393604 </v>
   <v>      -0.00870155      -0.01312064       0.00845582 </v>
   <v>      -0.01963965      -0.02096005      -0.01297006 </v>
   <v>       0.00387022       0.00060269      -0.00758031 </v>
   <v>       0.00102847      -0.00541553       0.00766710 </v>
   <v>      -0.00942300       0.00943346       0.00300530 </v>
   <v>      -0.01705288       0.00817327      -0.00218952 </v>
   <v>       0.00445908      -0.01333620      -0.00365191 </v>
   <v>      -0.01259355      -0.00393912      -0.01171895 </v>
   <v>      -0.00875280      -0.01277422      -0.02396587 </v>
   <v>       0.00101780       0.00212743      -0.00721959 </v>
   <v>      -0.01027920       0.00630430      -0.02491449 </v>
   <v>      -0.00890821      -0.01461701       0.03809609 </v>
   <v>       0.00834674      -0.01076347      -0.01857836 </v>
   <v>      -0.01408673      -0.00157759       0.00242187 </v>
   <v>       0.00565265      -0.00674679      -0.03091988 </v>
   <v>       0.00603991      -0.00218686       0.00277555 </v>
   <v>      -0.00512039      -0.01503895       0.01580521 </v>
   <v>      -0.00462743       0.00779657       0.03190780 </v>
   <v>      -0.00372108       0.00423561      -0.00471329 </v>
   <v>      -0.00484917      -0.01377687       0.00801965 </v>
   <v>       0.01412365      -0.00672313       0.00820807 </v>
   <v>      -0.01267577      -0.00536073       0.00812292 </v>
   <v>      -0.00292053       0.00357701       0.02384206 </v>
   <v>       0.00721696      -0.00103232       0.00577009 </v>
   <v>      -0.00079689       0.00801942       0.00231596 </v>
   <v>      -0.00136548      -0.00406792       0.00737837 </v>
   <v>      -0.00836313      -0.00919109       0.01317256 </v>
   <v>       0.00381962      -0.00172445       0.01502832 </v>
   <v>      -0.00085070       0.00934722       0.00813041 </v>
   <v>      -0.01051148       0.02029339       0.03073837 </v>
   <v>      -0.00009050      -0.00518506       0.01347534 </v>
   <v>      -0.00121731       0.00257671       0.01410236 </v>
   <v>      -0.00221116       0.00273688      -0.01301286 </v>
   <v>      -0.00684456      -0.00385577       0.02352989 </v>
   <v>      -0.00706154       0.00444895      -0.05258353 </v>
   <v>      -0.00057496       0.00496718       0.03349371 </v>
   <v>       0.00201299       0.02065315      -0.01011813 </v>
   <v>      -0.01612225       0.01607511      -0.01224304 </v>
   <v>      -0.00142258      -0.00775840      -0.02412985 </v>
   <v>       0.00193454       0.00402523      -0.00135347 </v>
  </varray>
  <varray name="stress" >
   <v>       0.17177535       0.09799478       0.02577873 </v>
   <v>       0.09799464       0.15699120      -0.01694718 </v>
   <v>       0.02577869      -0.01694764      -0.07933193 </v>
  </varray>
  <energy>
   <i name="e_fr_energy">  -1152.36569408 </i>
   <i name="e_wo_entrp">  -1152.36569408 </i>
   <i name="e_0_energy">     -0.00000000 </i>
  </energy>
  <time name="totalsc"> 1957.60 1960.23</time>
 </calculation>
 <calculation>
  <scstep>
   <time name="dav">  562.90  562.95</time>
   <time name="total">  570.10  570.22</time>
   <energy>
    <i name="alphaZ">   5624.76491669 </i>
    <i name="ewald"> -60893.68580649 </i>
    <i name="hartreedc"> -15586.03218740 </i>
    <i name="XCdc">   2852.02585091 </i>
    <i name="pawpsdc"> 111968.75724132 </i>
    <i name="pawaedc">-110716.70617405 </i>
    <i name="eentropy">     -0.00000000 </i>
    <i name="bandstr">  -7051.57374419 </i>
    <i name="atom">  72650.08363186 </i>
    <i name="e_fr_energy">  -1152.36627134 </i>
    <i name="e_wo_entrp">  -1152.36627134 </i>
    <i name="e_0_energy">  -1152.36627134 </i>
   </energy>
  </scstep>
  <scstep>
   <time name="diag">   65.08   65.08</time>
   <time name="diis">  104.88  104.88</time>
   <time name="orth">   33.43   33.44</time>
   <time name="total">  210.65  210.68</time>
   <energy>
    <i name="e_fr_energy">  -1152.36717185 </i>
    <i name="e_wo_entrp">  -1152.36717185 </i>
    <i name="e_0_energy">  -1152.36717185 </i>
   </energy>
  </scstep>
  <scstep>
   <time name="diag">   65.11   65.11</time>
   <time name="diis">  105.45  105.46</time>
   <time name="orth">   33.38   33.38</time>
   <time name="total">  211.22  211.29</time>
   <energy>
    <i name="e_fr_energy">  -1152.36700020 </i>
    <i name="e_wo_entrp">  -1152.36700020 </i>
    <i name="e_0_energy">  -1152.36700020 </i>
   </energy>
  </scstep>
  <scstep>
   <time name="diag">   65.12   65.13</time>
   <time name="diis">   90.88   90.89</time>
   <time name="orth">   33.41   33.41</time>
   <time name="total">  196.67  196.75</time>
   <energy>
    <i name="e_fr_energy">  -1152.36679711 </i>
    <i name="e_wo_entrp">  -1152.36679711 </i>
    <i name="e_0_energy">  -1152.36679711 </i>
   </energy>
  </scstep>
  <scstep>
   <time name="diag">   65.09   65.09</time>
   <time name="diis">   72.27   72.27</time>
   <time name="orth">   33.38   33.38</time>
   <time name="total">  178.01  178.14</time>
   <energy>
    <i name="e_fr_energy">  -1152.36675386 </i>
    <i name="e_wo_entrp">  -1152.36675386 </i>
    <i name="e_0_energy">  -1152.36675386 </i>
   </energy>
  </scstep>
  <scstep>
   <time name="diag">   65.08   65.08</time>
   <time name="diis">   64.21   64.22</time>
   <time name="orth">   33.45   33.45</time>
   <time name="total">  169.99  170.10</time>
   <energy>
    <i name="e_fr_energy">  -1152.36675421 </i>
    <i name="e_wo_entrp">  -1152.36675421 </i>
    <i name="e_0_energy">  -1152.36675421 </i>
   </energy>
  </scstep>
  <scstep>
   <time name="diag">   65.08   65.08</time>
   <time name="diis">   63.24   63.26</time>
   <time name="orth">   33.22   33.22</time>
   <time name="total">  168.77  168.89</time>
   <energy>
    <i name="e_fr_energy">  -1152.36675373 </i>
    <i name="e_wo_entrp">  -1152.36675373 </i>
    <i name="e_0_energy">  -1152.36675373 </i>
   </energy>
  </scstep>
  <scstep>
   <time name="diag">   65.13   65.17</time>
   <time name="diis">   61.40   61.47</time>
   <time name="orth">   33.23   33.23</time>
   <time name="total">  160.82  161.08</time>
   <energy>
    <i name="alphaZ">   5624.76491669 </i>
    <i name="ewald"> -60893.68580649 </i>
    <i name="hartreedc"> -15587.19441355 </i>
    <i name="XCdc">   2852.11993275 </i>
    <i name="pawpsdc"> 111943.85597615 </i>
    <i name="pawaedc">-110691.79398612 </i>
    <i name="eentropy">     -0.00000000 </i>
    <i name="bandstr">  -7050.51700494 </i>
    <i name="atom">  72650.08363186 </i>
    <i name="e_fr_energy">  -1152.36675364 </i>
    <i name="e_wo_entrp">  -1152.36675364 </i>
    <i name="e_0_energy">  -1152.36675364 </i>
   </energy>
  </scstep>
  <structure>
   <crystal>
    <varray name="basis" >
     <v>      11.22257824       0.00129357       0.00010423 </v>
     <v>       0.00129341      11.21912657       0.00101754 </v>
     <v>       0.00014898       0.00146425      15.95068370 </v>
    </varray>
    <i name="volume">   2008.31107399 </i>
    <varray name="rec_basis" >
     <v>       0.08910609      -0.00001027      -0.00000083 </v>
     <v>      -0.00001027       0.08913350      -0.00000818 </v>
     <v>      -0.00000058      -0.00000569       0.06269324 </v>
    </varray>
   </crystal>
   <varray name="positions" >
    <v>       0.99988217       0.25017399       0.12662701 </v>
    <v>       0.00701890       0.25323087       0.61844420 </v>
    <v>       0.00328229       0.75033054       0.12775248 </v>
    <v>       0.99333980       0.74752201       0.61815224 </v>
    <v>       0.49919270       0.24877791       0.12799326 </v>
    <v>       0.49490678       0.25005095       0.61766904 </v>
    <v>       0.49688264       0.75013433       0.12739374 </v>
    <v>       0.50787920       0.75084104       0.61803511 </v>
    <v>       0.00229434       0.25282952       0.37779777 </v>
    <v>       0.00486890       0.25174792       0.87755110 </v>
    <v>       0.00345489       0.74874022       0.37456813 </v>
    <v>       0.99251041       0.74946524       0.87924438 </v>
    <v>       0.49765663       0.24890044       0.37462206 </v>
    <v>       0.49665131       0.24965768       0.88042007 </v>
    <v>       0.49684696       0.75030288       0.37429598 </v>
    <v>       0.50802223       0.75055728       0.87983393 </v>
    <v>       0.25039673       0.99853185       0.12836973 </v>
    <v>       0.25157738       0.00504491       0.61779091 </v>
    <v>       0.24936087       0.50202465       0.12779881 </v>
    <v>       0.24186980       0.48920586       0.61776705 </v>
    <v>       0.74891587       0.00055400       0.12625190 </v>
    <v>       0.74957620       0.99119386       0.62009686 </v>
    <v>       0.75023980       0.49895788       0.12736711 </v>
    <v>       0.75693707       0.50509339       0.61702431 </v>
    <v>       0.25107513       0.00038325       0.37439805 </v>
    <v>       0.25075654       0.00292906       0.88043304 </v>
    <v>       0.24709317       0.49953990       0.37673173 </v>
    <v>       0.24598670       0.49280808       0.87846282 </v>
    <v>       0.74881770       0.00066948       0.37520628 </v>
    <v>       0.74927352       0.99088813       0.87812935 </v>
    <v>       0.75215935       0.49919113       0.37500105 </v>
    <v>       0.75470083       0.50531954       0.88025722 </v>
    <v>      -0.00001861      -0.00004600       0.00005981 </v>
    <v>       0.00140575       0.00120971       0.49992343 </v>
    <v>       0.00035045       0.50007951       0.00091232 </v>
    <v>       0.49943922       0.99942513       0.99945709 </v>
    <v>       0.49849297       0.00086686       0.50081577 </v>
    <v>       0.50064368       0.49867037       0.00095351 </v>
    <v>       0.49969349       0.49775171       0.49925742 </v>
    <v>       0.25006829       0.24964278       0.00194318 </v>
    <v>       0.25165226       0.75062724       0.00093702 </v>
    <v>       0.25078057       0.74964968       0.49947999 </v>
    <v>       0.74914775       0.25045481       0.99982489 </v>
    <v>       0.75026904       0.25174395       0.50033216 </v>
    <v>       0.75009425       0.74966170       0.00280598 </v>
    <v>       0.75139007       0.74864829       0.49711714 </v>
    <v>       0.24987686       0.25023185       0.25182485 </v>
    <v>       0.25063705       0.24565038       0.74899838 </v>
    <v>       0.23254646       0.74695464       0.74967369 </v>
    <v>       0.75027927       0.24903732       0.25060970 </v>
    <v>       0.75925541       0.23597095       0.74978312 </v>
    <v>       0.75034622       0.74973248       0.25009041 </v>
    <v>       0.75004016       0.74914089       0.74974429 </v>
    <v>       0.00093898       0.99948383       0.25055933 </v>
    <v>       0.00474040       0.99767023       0.74955833 </v>
    <v>       0.00200881       0.50206272       0.25189829 </v>
    <v>       0.99531715       0.49481812       0.74880834 </v>
    <v>       0.49979735       0.99889763       0.25024856 </v>
    <v>       0.49787965       0.50177765       0.25059814 </v>
    <v>       0.48556196       0.50918473       0.74971182 </v>
    <v>       0.00132834       0.49929804       0.49911566 </v>
    <v>       0.24931193       0.25060850       0.49821677 </v>
    <v>       0.25002674       0.74929745       0.25088675 </v>
    <v>       0.50854168       0.01670099       0.74987284 </v>
    <v>       0.10961608       0.14009236       0.24925646 </v>
    <v>       0.10126725       0.14535072       0.75033183 </v>
    <v>       0.10951776       0.63887190       0.24869161 </v>
    <v>       0.10355939       0.64675016       0.75088301 </v>
    <v>       0.61087019       0.14047528       0.24935556 </v>
    <v>       0.60299153       0.15777715       0.75016897 </v>
    <v>       0.61079811       0.63977903       0.24908782 </v>
    <v>       0.61712846       0.62480561       0.75125789 </v>
    <v>       0.39059245       0.36040670       0.24888142 </v>
    <v>       0.39503900       0.35853413       0.75092409 </v>
    <v>       0.39062239       0.86280683       0.24944815 </v>
    <v>       0.88896409       0.36002305       0.24918617 </v>
    <v>       0.88439495       0.35931097       0.75094762 </v>
    <v>       0.88966737       0.85962727       0.24944192 </v>
    <v>       0.89113627       0.85762303       0.75045152 </v>
    <v>       0.36099571       0.11064930       0.24863107 </v>
    <v>       0.35231608       0.10194024       0.75116224 </v>
    <v>       0.36211633       0.60947112       0.25022999 </v>
    <v>       0.36052535       0.61759560       0.75037918 </v>
    <v>       0.85965076       0.10931186       0.24875057 </v>
    <v>       0.85124415       0.10053076       0.75060758 </v>
    <v>       0.85951985       0.60997996       0.24871205 </v>
    <v>       0.85959433       0.60896117       0.75128258 </v>
    <v>       0.14005439       0.38946750       0.24879475 </v>
    <v>       0.14065629       0.39352074       0.75139656 </v>
    <v>       0.13757057       0.89068285       0.24989720 </v>
    <v>       0.14990914       0.89927326       0.75026851 </v>
    <v>       0.63988869       0.38891990       0.24963418 </v>
    <v>       0.64068320       0.88981661       0.24906321 </v>
    <v>       0.62871073       0.88001981       0.75074255 </v>
    <v>       0.36108310       0.38954674       0.99855133 </v>
    <v>       0.36557914       0.38886937       0.50185236 </v>
    <v>       0.36171142       0.88954065       0.00420980 </v>
    <v>       0.36360167       0.88774530       0.49573335 </v>
    <v>       0.86048481       0.38931034       0.00029010 </v>
    <v>       0.86064356       0.38543074       0.49905305 </v>
    <v>       0.86087624       0.88878658       0.99970015 </v>
    <v>       0.86208268       0.88706946       0.50010912 </v>
    <v>       0.13792829       0.11150910       0.00002842 </v>
    <v>       0.13456480       0.11176159       0.49977902 </v>
    <v>       0.13999428       0.61350322       0.99221692 </v>
    <v>       0.13947993       0.61778435       0.50829544 </v>
    <v>       0.63895944       0.11049628       0.99258159 </v>
    <v>       0.63770909       0.11145270       0.50715803 </v>
    <v>       0.63920175       0.61056904       0.99884918 </v>
    <v>       0.63762577       0.61219207       0.50119696 </v>
    <v>       0.11136649       0.36181548       0.99959831 </v>
    <v>       0.11432804       0.36454313       0.50034743 </v>
    <v>       0.11170516       0.86106343       0.99695127 </v>
    <v>       0.11283734       0.86291952       0.50285098 </v>
    <v>       0.60993443       0.35973823       0.00452339 </v>
    <v>       0.61194551       0.36106035       0.49540780 </v>
    <v>       0.61126806       0.86023706       0.00014055 </v>
    <v>       0.61292324       0.86165018       0.49968365 </v>
    <v>       0.38900159       0.13875439       0.99919530 </v>
    <v>       0.38846756       0.13563668       0.50069387 </v>
    <v>       0.39055131       0.63745956       0.99275022 </v>
    <v>       0.38990635       0.63660930       0.50673286 </v>
    <v>       0.88713124       0.13988937       0.99336047 </v>
    <v>       0.88492285       0.13736175       0.50683745 </v>
    <v>       0.88865861       0.63892557       0.99995636 </v>
    <v>       0.88558636       0.63777285       0.49975974 </v>
    <v>       0.99863262       0.00139908       0.12322637 </v>
    <v>       0.99864292       0.99778739       0.62688679 </v>
    <v>       0.00242602       0.50173524       0.12318659 </v>
    <v>       0.99805771       0.49939751       0.62791331 </v>
    <v>       0.50423953       0.00334040       0.12362405 </v>
    <v>       0.49213567       0.98898692       0.62864996 </v>
    <v>       0.49847464       0.50296871       0.12363303 </v>
    <v>       0.51468820       0.48734639       0.63009188 </v>
    <v>       0.99719984       0.00157110       0.37574821 </v>
    <v>       0.99939327       0.99826033       0.87380306 </v>
    <v>       0.00185086       0.50256649       0.37365998 </v>
    <v>       0.99846576       0.49897821       0.87491501 </v>
    <v>       0.50427655       0.00303771       0.37494176 </v>
    <v>       0.49207553       0.98922016       0.87233873 </v>
    <v>       0.49947483       0.50269036       0.37563204 </v>
    <v>       0.51298403       0.48702151       0.87083079 </v>
    <v>       0.25180808       0.24953755       0.37299622 </v>
    <v>       0.24856835       0.25056519       0.87546707 </v>
    <v>       0.25019410       0.74630999       0.37811324 </v>
    <v>       0.26856653       0.76679211       0.86770820 </v>
    <v>       0.75095715       0.24418984       0.37580185 </v>
    <v>       0.73844138       0.26730009       0.87002855 </v>
    <v>       0.74938752       0.74935821       0.37405294 </v>
    <v>       0.75073441       0.75044905       0.87578331 </v>
    <v>       0.25060228       0.24993992       0.12414537 </v>
    <v>       0.24928660       0.25002351       0.62754648 </v>
    <v>       0.25069785       0.74588627       0.12126954 </v>
    <v>       0.26861296       0.76729043       0.63267488 </v>
    <v>       0.75093849       0.24554778       0.12297657 </v>
    <v>       0.73894921       0.26695942       0.63053422 </v>
    <v>       0.74996495       0.74957382       0.12465819 </v>
    <v>       0.75034079       0.75008814       0.62539541 </v>
   </varray>
  </structure>
  <varray name="forces" >
   <v>      -0.00974826       0.00965051      -0.01331015 </v>
   <v>       0.01118470       0.00927689       0.00558463 </v>
   <v>      -0.00541890      -0.00776731      -0.00864784 </v>
   <v>      -0.00549650      -0.00047968       0.01724676 </v>
   <v>       0.00999528       0.00216298      -0.01234173 </v>
   <v>       0.00511193       0.00777585       0.01689593 </v>
   <v>       0.00211720       0.00099050      -0.01113155 </v>
   <v>       0.00911155      -0.00252335       0.01316373 </v>
   <v>      -0.00616705       0.00781365      -0.00209061 </v>
   <v>       0.00721431       0.00696478       0.00059065 </v>
   <v>      -0.00004763      -0.01116833       0.00760922 </v>
   <v>       0.00472570      -0.00615321      -0.00646100 </v>
   <v>       0.00068953      -0.00299824       0.00235405 </v>
   <v>       0.00545898       0.00360836      -0.01383888 </v>
   <v>       0.00722883      -0.00035609       0.00532181 </v>
   <v>      -0.00511117      -0.00713730      -0.00259504 </v>
   <v>      -0.00329561       0.00925628      -0.01728704 </v>
   <v>      -0.00146788       0.00299005       0.02053430 </v>
   <v>       0.00059634      -0.00692364      -0.01057164 </v>
   <v>       0.01740445      -0.00024654       0.01573591 </v>
   <v>       0.00294465       0.01895100      -0.00558143 </v>
   <v>      -0.00490563       0.00145947      -0.00068405 </v>
   <v>       0.00011674      -0.02230000      -0.01169144 </v>
   <v>       0.00892536       0.01546016       0.00448190 </v>
   <v>      -0.00781861       0.01061206       0.00479503 </v>
   <v>      -0.00831127       0.00037085      -0.01207699 </v>
   <v>       0.00709545      -0.00973040       0.00828486 </v>
   <v>      -0.00876616       0.00791012      -0.00449789 </v>
   <v>       0.00330357       0.00649445      -0.00378001 </v>
   <v>      -0.00143510      -0.00249427       0.00141509 </v>
   <v>      -0.00022203      -0.00896520       0.00118397 </v>
   <v>       0.01677751       0.01300017       0.00319485 </v>
   <v>       0.00272983       0.07907500      -0.02071805 </v>
   <v>      -0.01437828       0.00601860       0.01635732 </v>
   <v>      -0.01697978      -0.02616387      -0.03855067 </v>
   <v>      -0.00771799       0.00645187      -0.01519114 </v>
   <v>       0.02349758       0.00377671       0.01589536 </v>
   <v>       0.01886055      -0.02723797      -0.02413811 </v>
   <v>       0.01283133      -0.01231855       0.02131897 </v>
   <v>      -0.01791222       0.00664153      -0.02099206 </v>
   <v>      -0.00025979       0.00562914      -0.07674350 </v>
   <v>       0.00464455      -0.01010070       0.01153000 </v>
   <v>       0.00605700       0.03602824      -0.00529493 </v>
   <v>      -0.01978440       0.00134336       0.00665862 </v>
   <v>       0.01141226      -0.02422017      -0.03023886 </v>
   <v>      -0.01840250       0.00869118      -0.01240594 </v>
   <v>      -0.00252794       0.00675855       0.00679349 </v>
   <v>       0.00591730       0.01072440       0.02527015 </v>
   <v>      -0.00707967      -0.02779001       0.06970246 </v>
   <v>       0.00559238       0.01997774      -0.01941478 </v>
   <v>      -0.02063560       0.06695394       0.01722239 </v>
   <v>       0.01112557      -0.01375379       0.01123592 </v>
   <v>      -0.01505145      -0.03649615       0.02540032 </v>
   <v>      -0.02236467       0.01761504      -0.00512370 </v>
   <v>       0.01573120       0.00514782       0.02271792 </v>
   <v>      -0.01894239      -0.02419347      -0.00869869 </v>
   <v>       0.00973110       0.00347028       0.07446344 </v>
   <v>       0.00993548       0.02759126      -0.02185306 </v>
[...]
       <r>   -15.8093     0.0000    32.0000 </r>
       <r>   -15.6573     0.0000    32.0000 </r>
       <r>   -15.5054     0.0000    32.0000 </r>
       <r>   -15.3535     0.0009    32.0001 </r>
       <r>   -15.2016     5.0137    32.7618 </r>
       <r>   -15.0497    19.4879    35.7225 </r>
       <r>   -14.8977    39.6521    41.7465 </r>
       <r>   -14.7458    54.6616    50.0508 </r>
       <r>   -14.5939    39.9871    56.1258 </r>
       <r>   -14.4420    30.5160    60.7618 </r>
       <r>   -14.2900    31.4990    65.5473 </r>
       <r>   -14.1381    77.4746    77.3174 </r>
       <r>   -13.9862   128.6367    96.8602 </r>
       <r>   -13.8343   134.3241   117.2671 </r>
       <r>   -13.6824    42.5752   123.7352 </r>
       <r>   -13.5304    13.6100   125.8029 </r>
       <r>   -13.3785     1.2975   126.0000 </r>
       <r>   -13.2266     0.0000   126.0000 </r>
       <r>   -13.0747     0.0000   126.0000 </r>
       <r>   -12.9227     0.0000   126.0000 </r>
       <r>   -12.7708     0.0013   126.0002 </r>
       <r>   -12.6189    12.3989   127.8839 </r>
       <r>   -12.4670    97.1809   142.6478 </r>
       <r>   -12.3150   174.7996   169.2038 </r>
       <r>   -12.1631   133.8093   189.5325 </r>
       <r>   -12.0112   137.8399   210.4735 </r>
       <r>   -11.8593    67.7661   220.7687 </r>
       <r>   -11.7074     8.1034   221.9998 </r>
       <r>   -11.5554     0.0015   222.0000 </r>
       <r>   -11.4035     0.0000   222.0000 </r>
       <r>   -11.2516     0.0000   222.0000 </r>
       <r>   -11.0997     0.0000   222.0000 </r>
       <r>   -10.9477     0.0000   222.0000 </r>
       <r>   -10.7958     0.0000   222.0000 </r>
       <r>   -10.6439     0.0000   222.0000 </r>
       <r>   -10.4920     0.0000   222.0000 </r>
       <r>   -10.3401     0.0000   222.0000 </r>
       <r>   -10.1881     0.0000   222.0000 </r>
       <r>   -10.0362     0.0000   222.0000 </r>
       <r>    -9.8843     0.0000   222.0000 </r>
       <r>    -9.7324     0.0000   222.0000 </r>
       <r>    -9.5804     0.0000   222.0000 </r>
       <r>    -9.4285     0.0000   222.0000 </r>
       <r>    -9.2766     0.0000   222.0000 </r>
       <r>    -9.1247     0.0000   222.0000 </r>
       <r>    -8.9728     0.0000   222.0000 </r>
       <r>    -8.8208     0.0000   222.0000 </r>
       <r>    -8.6689     0.0000   222.0000 </r>
       <r>    -8.5170     0.0000   222.0000 </r>
       <r>    -8.3651     0.0000   222.0000 </r>
       <r>    -8.2131     0.0000   222.0000 </r>
       <r>    -8.0612     0.0000   222.0000 </r>
       <r>    -7.9093     0.0000   222.0000 </r>
       <r>    -7.7574     0.0000   222.0000 </r>
       <r>    -7.6055     0.0000   222.0000 </r>
       <r>    -7.4535     0.0000   222.0000 </r>
       <r>    -7.3016     0.0000   222.0000 </r>
       <r>    -7.1497     0.0000   222.0000 </r>
       <r>    -6.9978     0.0000   222.0000 </r>
       <r>    -6.8458     0.0000   222.0000 </r>
       <r>    -6.6939     0.0000   222.0000 </r>
       <r>    -6.5420     0.0000   222.0000 </r>
       <r>    -6.3901     0.0000   222.0000 </r>
       <r>    -6.2381     0.0000   222.0000 </r>
       <r>    -6.0862     0.0000   222.0000 </r>
       <r>    -5.9343     0.0000   222.0000 </r>
       <r>    -5.7824     0.0000   222.0000 </r>
       <r>    -5.6305     0.0000   222.0000 </r>
       <r>    -5.4785     0.0000   222.0000 </r>
       <r>    -5.3266     0.0000   222.0000 </r>
       <r>    -5.1747     0.0000   222.0000 </r>
       <r>    -5.0228     0.0000   222.0000 </r>
       <r>    -4.8708     0.0000   222.0000 </r>
       <r>    -4.7189     0.0000   222.0000 </r>
       <r>    -4.5670     0.0000   222.0000 </r>
       <r>    -4.4151     0.0000   222.0000 </r>
       <r>    -4.2632     0.0000   222.0000 </r>
       <r>    -4.1112     0.0000   222.0000 </r>
       <r>    -3.9593     0.0000   222.0000 </r>
       <r>    -3.8074     0.0000   222.0000 </r>
       <r>    -3.6555     0.0000   222.0000 </r>
       <r>    -3.5035     0.0000   222.0000 </r>
       <r>    -3.3516     0.0000   222.0000 </r>
       <r>    -3.1997     0.0000   222.0000 </r>
       <r>    -3.0478     0.0000   222.0000 </r>
       <r>    -2.8959     0.0000   222.0000 </r>
       <r>    -2.7439     0.0000   222.0000 </r>
       <r>    -2.5920     0.0000   222.0000 </r>
       <r>    -2.4401     0.0003   222.0000 </r>
       <r>    -2.2882     4.1399   222.6290 </r>
       <r>    -2.1362    18.6720   225.4657 </r>
       <r>    -1.9843    28.7735   229.8370 </r>
       <r>    -1.8324    41.8618   236.1968 </r>
       <r>    -1.6805    60.6418   245.4096 </r>
       <r>    -1.5285    54.9680   253.7605 </r>
       <r>    -1.3766    59.5696   262.8105 </r>
       <r>    -1.2247    73.3104   273.9480 </r>
       <r>    -1.0728    64.9584   283.8166 </r>
       <r>    -0.9209    78.9842   295.8161 </r>
       <r>    -0.7689    76.5547   307.4465 </r>
       <r>    -0.6170    96.9241   322.1714 </r>
       <r>    -0.4651   123.9945   341.0090 </r>
       <r>    -0.3132    85.7622   354.0382 </r>
       <r>    -0.1612    54.6426   362.3397 </r>
       <r>    -0.0093    51.8356   370.2147 </r>
       <r>     0.1426    41.5848   376.5323 </r>
       <r>     0.2945    44.4961   383.2923 </r>
       <r>     0.4464    48.0482   390.5919 </r>
       <r>     0.5984    59.5956   399.6458 </r>
       <r>     0.7503    45.7760   406.6002 </r>
       <r>     0.9022    48.4423   413.9597 </r>
       <r>     1.0541    60.5499   423.1586 </r>
       <r>     1.2061    78.1221   435.0271 </r>
       <r>     1.3580    91.5473   448.9352 </r>
       <r>     1.5099    94.8756   463.3489 </r>
       <r>     1.6618    89.1910   476.8990 </r>
       <r>     1.8137    61.9093   486.3045 </r>
       <r>     1.9657    56.0331   494.8171 </r>
       <r>     2.1176    29.3913   499.2823 </r>
       <r>     2.2695    28.6048   503.6281 </r>
       <r>     2.4214     2.4481   504.0000 </r>
       <r>     2.5734     0.0001   504.0000 </r>
       <r>     2.7253     0.0000   504.0000 </r>
       <r>     2.8772     0.0000   504.0000 </r>
       <r>     3.0291     0.0000   504.0000 </r>
       <r>     3.1810     0.0000   504.0000 </r>
       <r>     3.3330     0.0000   504.0000 </r>
       <r>     3.4849     0.0000   504.0000 </r>
       <r>     3.6368     0.0000   504.0000 </r>
       <r>     3.7887     0.0000   504.0000 </r>
       <r>     3.9407     0.0000   504.0000 </r>
       <r>     4.0926     0.0000   504.0000 </r>
       <r>     4.2445     0.0000   504.0000 </r>
       <r>     4.3964     0.1693   504.0257 </r>
       <r>     4.5484    11.6689   505.7985 </r>
       <r>     4.7003    23.5697   509.3793 </r>
       <r>     4.8522    40.0461   515.4632 </r>
       <r>     5.0041    22.6380   518.9024 </r>
       <r>     5.1560    34.5154   524.1461 </r>
       <r>     5.3080    51.0353   531.8995 </r>
       <r>     5.4599    67.1921   542.1075 </r>
       <r>     5.6118    58.5641   551.0047 </r>
       <r>     5.7637    67.2982   561.2288 </r>
       <r>     5.9157    91.7246   575.1638 </r>
       <r>     6.0676    95.5580   589.6812 </r>
       <r>     6.2195    80.8146   601.9588 </r>
       <r>     6.3714    53.9102   610.1490 </r>
       <r>     6.5233    39.4659   616.1447 </r>
       <r>     6.6753    20.8607   619.3139 </r>
       <r>     6.8272    23.1721   622.8343 </r>
       <r>     6.9791    22.0778   626.1884 </r>
       <r>     7.1310    17.6704   628.8729 </r>
       <r>     7.2830    18.2998   631.6531 </r>
       <r>     7.4349    19.2436   634.5766 </r>
       <r>     7.5868    13.3845   636.6100 </r>
       <r>     7.7387    14.0823   638.7494 </r>
       <r>     7.8906    16.5038   641.2567 </r>
       <r>     8.0426    25.2408   645.0914 </r>
       <r>     8.1945    22.3728   648.4903 </r>
       <r>     8.3464    29.6053   652.9880 </r>
       <r>     8.4983    24.5378   656.7159 </r>
       <r>     8.6503    25.4836   660.5874 </r>
       <r>     8.8022    18.2331   663.3575 </r>
       <r>     8.9541    28.5406   667.6934 </r>
       <r>     9.1060    38.6935   673.5718 </r>
       <r>     9.2580    42.4518   680.0212 </r>
       <r>     9.4099    40.0298   686.1026 </r>
       <r>     9.5618    39.9688   692.1748 </r>
       <r>     9.7137    45.2088   699.0431 </r>
       <r>     9.8656    58.3063   707.9011 </r>
       <r>    10.0176    70.4789   718.6084 </r>
       <r>    10.1695    69.2620   729.1309 </r>
       <r>    10.3214    71.2398   739.9538 </r>
       <r>    10.4733    55.3998   748.3703 </r>
       <r>    10.6253    58.5102   757.2593 </r>
       <r>    10.7772    53.8305   765.4374 </r>
       <r>    10.9291    16.8573   767.9984 </r>
       <r>    11.0810     0.0107   768.0000 </r>
       <r>    11.2329     0.0000   768.0000 </r>
       <r>    11.3849     0.0000   768.0000 </r>
       <r>    11.5368     0.0000   768.0000 </r>
       <r>    11.6887     0.0000   768.0000 </r>
       <r>    11.8406     0.0000   768.0000 </r>
       <r>    11.9926     0.0000   768.0000 </r>
       <r>    12.1445     0.0000   768.0000 </r>
       <r>    12.2964     0.0000   768.0000 </r>
       <r>    12.4483     0.0000   768.0000 </r>
       <r>    12.6002     0.0000   768.0000 </r>
       <r>    12.7522     0.0000   768.0000 </r>
       <r>    12.9041     0.0000   768.0000 </r>
      </set>
     </set>
    </array>
   </total>
  </dos>
 </calculation>
 <structure name="finalpos" >
  <crystal>
   <varray name="basis" >
    <v>      11.22318401       0.00118399       0.00002218 </v>
    <v>       0.00118387      11.21968160       0.00086613 </v>
    <v>       0.00003240       0.00124925      15.94850909 </v>
   </varray>
   <i name="volume">   2008.24501961 </i>
   <varray name="rec_basis" >
    <v>       0.08910128      -0.00000940      -0.00000018 </v>
    <v>      -0.00000940       0.08912909      -0.00000698 </v>
    <v>      -0.00000012      -0.00000484       0.06270179 </v>
   </varray>
  </crystal>
  <varray name="positions" >
   <v>       0.99980296       0.25030857       0.12659122 </v>
   <v>       0.00724799       0.25346769       0.61845930 </v>
   <v>       0.00330310       0.75026858       0.12774555 </v>
   <v>       0.99328151       0.74758658       0.61836071 </v>
   <v>       0.49924869       0.24877187       0.12789571 </v>
   <v>       0.49497505       0.25015650       0.61788594 </v>
   <v>       0.49681071       0.75016785       0.12738623 </v>
   <v>       0.50801038       0.75084595       0.61817374 </v>
   <v>       0.00218812       0.25294111       0.37782930 </v>
   <v>       0.00502387       0.25169219       0.87745921 </v>
   <v>       0.00358550       0.74854571       0.37467389 </v>
   <v>       0.99255237       0.74962677       0.87913090 </v>
   <v>       0.49759454       0.24877142       0.37465770 </v>
   <v>       0.49674340       0.24964110       0.88015686 </v>
   <v>       0.49688158       0.75034403       0.37427785 </v>
   <v>       0.50794580       0.75046347       0.87985683 </v>
   <v>       0.25027920       0.99856197       0.12828697 </v>
   <v>       0.25148507       0.00502941       0.61801923 </v>
   <v>       0.24944721       0.50208911       0.12777297 </v>
   <v>       0.24223739       0.48933799       0.61789666 </v>
   <v>       0.74900175       0.00081389       0.12622848 </v>
   <v>       0.74958467       0.99119775       0.62014409 </v>
   <v>       0.75015760       0.49865598       0.12735592 </v>
   <v>       0.75729917       0.50549854       0.61697593 </v>
   <v>       0.25088007       0.00050803       0.37447931 </v>
   <v>       0.25055204       0.00299049       0.88018381 </v>
   <v>       0.24730751       0.49946395       0.37685008 </v>
   <v>       0.24592386       0.49300513       0.87843142 </v>
   <v>       0.74892362       0.00078675       0.37510107 </v>
   <v>       0.74928669       0.99082796       0.87806165 </v>
   <v>       0.75213616       0.49903449       0.37505408 </v>
   <v>       0.75496672       0.50575168       0.88028313 </v>
   <v>      -0.00005234       0.00008453       0.00007653 </v>
   <v>       0.00128450       0.00123807       0.49999867 </v>
   <v>       0.00031456       0.50003547       0.00092530 </v>
   <v>       0.49936810       0.99942869       0.99943292 </v>
   <v>       0.49853993       0.00082485       0.50077201 </v>
   <v>       0.50068664       0.49854992       0.00088931 </v>
   <v>       0.49975508       0.49771256       0.49927094 </v>
   <v>       0.25004491       0.24969501       0.00196137 </v>
   <v>       0.25162375       0.75066863       0.00080057 </v>
   <v>       0.25080357       0.74964250       0.49949531 </v>
   <v>       0.74911118       0.25059099       0.99978128 </v>
   <v>       0.75017588       0.25181256       0.50037354 </v>
   <v>       0.75008206       0.74967813       0.00280769 </v>
   <v>       0.75136269       0.74871793       0.49692867 </v>
   <v>       0.24983870       0.25027032       0.25184057 </v>
   <v>       0.25077793       0.24569071       0.74900832 </v>
   <v>       0.23260553       0.74676243       0.74978371 </v>
   <v>       0.75025027       0.24912602       0.25062645 </v>
   <v>       0.75926622       0.23623568       0.74977310 </v>
   <v>       0.75038627       0.74964129       0.25010305 </v>
   <v>       0.74992000       0.74906909       0.74977831 </v>
   <v>       0.00087779       0.99938377       0.25064347 </v>
   <v>       0.00466720       0.99770213       0.74957305 </v>
   <v>       0.00192966       0.50205626       0.25195859 </v>
   <v>       0.99532668       0.49477918       0.74895071 </v>
   <v>       0.49979498       0.99890351       0.25018045 </v>
   <v>       0.49785943       0.50177892       0.25059565 </v>
   <v>       0.48587716       0.50921403       0.74974734 </v>
   <v>       0.00143379       0.49936608       0.49907689 </v>
   <v>       0.24932703       0.25059246       0.49816607 </v>
   <v>       0.24991988       0.74927973       0.25097640 </v>
   <v>       0.50842824       0.01654359       0.74983105 </v>
   <v>       0.10962319       0.13991440       0.24928180 </v>
   <v>       0.10181389       0.14481335       0.75033050 </v>
   <v>       0.10939006       0.63901315       0.24867881 </v>
   <v>       0.10370197       0.64645968       0.75080900 </v>
   <v>       0.61088626       0.14045564       0.24935158 </v>
   <v>       0.60328976       0.15741694       0.75012299 </v>
   <v>       0.61069844       0.63970862       0.24915983 </v>
   <v>       0.61735470       0.62471794       0.75131412 </v>
   <v>       0.39052557       0.36056595       0.24896445 </v>
   <v>       0.39560041       0.35828034       0.75083660 </v>
   <v>       0.39050220       0.86273507       0.24953179 </v>
   <v>       0.88894491       0.36007087       0.24923348 </v>
   <v>       0.88443682       0.35920751       0.75083074 </v>
   <v>       0.88966302       0.85960499       0.24955054 </v>
   <v>       0.89083317       0.85780381       0.75056344 </v>
   <v>       0.36123587       0.11081634       0.24865335 </v>
   <v>       0.35250695       0.10185888       0.75107019 </v>
   <v>       0.36185145       0.60939952       0.25016824 </v>
   <v>       0.36091557       0.61783607       0.75035689 </v>
   <v>       0.85967050       0.10928446       0.24881825 </v>
   <v>       0.85158696       0.10080259       0.75060512 </v>
   <v>       0.85942811       0.60995429       0.24876613 </v>
   <v>       0.85958663       0.60894073       0.75129202 </v>
   <v>       0.13988572       0.38937354       0.24884007 </v>
   <v>       0.14081893       0.39324407       0.75133910 </v>
   <v>       0.13765743       0.89072262       0.24991264 </v>
   <v>       0.14922914       0.89871531       0.75029080 </v>
   <v>       0.63987452       0.38909149       0.24970830 </v>
   <v>       0.64063504       0.88967518       0.24913406 </v>
   <v>       0.62848839       0.87987644       0.75075717 </v>
   <v>       0.36116102       0.38951259       0.99851091 </v>
   <v>       0.36582384       0.38863905       0.50180702 </v>
   <v>       0.36175639       0.88941776       0.00423186 </v>
   <v>       0.36382871       0.88738823       0.49554718 </v>
   <v>       0.86051289       0.38929616       0.00023419 </v>
   <v>       0.86088928       0.38528777       0.49907704 </v>
   <v>       0.86094607       0.88873246       0.99976256 </v>
   <v>       0.86229608       0.88689179       0.50000484 </v>
   <v>       0.13771578       0.11163708       0.00006035 </v>
   <v>       0.13407658       0.11209439       0.49962619 </v>
   <v>       0.14003138       0.61343435       0.99219763 </v>
   <v>       0.13944754       0.61773210       0.50832082 </v>
   <v>       0.63885172       0.11070041       0.99264958 </v>
   <v>       0.63749931       0.11172763       0.50708729 </v>
   <v>       0.63907648       0.61071232       0.99882577 </v>
   <v>       0.63734763       0.61248391       0.50116010 </v>
   <v>       0.11155156       0.36196924       0.99967059 </v>
   <v>       0.11476994       0.36493900       0.50015605 </v>
   <v>       0.11169850       0.86100964       0.99685759 </v>
   <v>       0.11296504       0.86297776       0.50299066 </v>
   <v>       0.60979545       0.35974721       0.00445214 </v>
   <v>       0.61199279       0.36122598       0.49518319 </v>
   <v>       0.61151980       0.86056476       0.00011757 </v>
   <v>       0.61332022       0.86211215       0.49967111 </v>
   <v>       0.38881979       0.13855308       0.99933036 </v>
   <v>       0.38795585       0.13520935       0.50050911 </v>
   <v>       0.39052612       0.63745517       0.99271937 </v>
   <v>       0.38976320       0.63648845       0.50688457 </v>
   <v>       0.88704964       0.13983047       0.99342376 </v>
   <v>       0.88473915       0.13724370       0.50682595 </v>
   <v>       0.88859130       0.63892256       0.99990703 </v>
   <v>       0.88543887       0.63756745       0.49970712 </v>
   <v>       0.99846854       0.00103944       0.12330651 </v>
   <v>       0.99856028       0.99776607       0.62692206 </v>
   <v>       0.00227206       0.50187946       0.12323509 </v>
   <v>       0.99798155       0.49913466       0.62793101 </v>
   <v>       0.50440747       0.00309450       0.12371867 </v>
   <v>       0.49176884       0.98890062       0.62858771 </v>
   <v>       0.49847794       0.50293522       0.12365264 </v>
   <v>       0.51476819       0.48732793       0.63014674 </v>
   <v>       0.99715754       0.00125029       0.37574840 </v>
   <v>       0.99928999       0.99830784       0.87376439 </v>
   <v>       0.00181159       0.50269651       0.37370225 </v>
   <v>       0.99844484       0.49871435       0.87483907 </v>
   <v>       0.50450157       0.00290964       0.37491421 </v>
   <v>       0.49181996       0.98918311       0.87230720 </v>
   <v>       0.49930151       0.50284189       0.37558451 </v>
   <v>       0.51301750       0.48707208       0.87080452 </v>
   <v>       0.25178713       0.24959982       0.37296788 </v>
   <v>       0.24868661       0.25048250       0.87546241 </v>
   <v>       0.24999803       0.74611116       0.37811246 </v>
   <v>       0.26856242       0.76671848       0.86761913 </v>
   <v>       0.75101293       0.24435753       0.37581418 </v>
   <v>       0.73827705       0.26758172       0.86989694 </v>
   <v>       0.74934964       0.74927607       0.37401425 </v>
   <v>       0.75067164       0.75057924       0.87576568 </v>
   <v>       0.25057334       0.25001285       0.12420014 </v>
   <v>       0.24925013       0.24994620       0.62759677 </v>
   <v>       0.25053336       0.74587392       0.12127031 </v>
   <v>       0.26872670       0.76745518       0.63276739 </v>
   <v>       0.75100194       0.24591019       0.12301381 </v>
   <v>       0.73862201       0.26723740       0.63060929 </v>
   <v>       0.74985717       0.74949914       0.12473599 </v>
   <v>       0.75039543       0.75021363       0.62541387 </v>
  </varray>
 </structure>
</modeling>
