<?xml version="1.0" encoding="ISO-8859-1"?>
<modeling>
 <generator>
  <i name="program" type="string">vasp </i>
  <i name="version" type="string">5.4.1  </i>
  <i name="subversion" type="string">05Feb16 (build Jan 25 2017 20:16:33) complex                          parallel </i>
  <i name="platform" type="string">BWXE6 </i>
  <i name="date" type="string">2019 06 27 </i>
  <i name="time" type="string">10:05:42 </i>
 </generator>
 <incar>
  <i type="string" name="SYSTEM"> STF</i>
  <i type="string" name="PREC">normal</i>
  <i type="string" name="ALGO"> Fast</i>
  <i type="int" name="ISPIN">     2</i>
  <i type="int" name="NELM">    40</i>
  <i type="int" name="NELMIN">     8</i>
  <i type="int" name="IBRION">     2</i>
  <i name="EDIFF">      0.00010000</i>
  <i name="EDIFFG">     -0.03000000</i>
  <i type="int" name="NSW">    30</i>
  <i type="int" name="ISIF">     3</i>
  <i name="ENCUT">    520.00000000</i>
  <i type="int" name="NBANDS">   768</i>
  <v name="MAGMOM">      0.60000000      0.60000000      0.60000000      0.60000000      0.60000000      0.60000000      0.60000000      0.60000000      0.60000000      0.60000000      0.60000000      0.60000000      0.60000000      0.60000000      0.60000000      0.60000000      0.60000000      0.60000000      0.60000000      0.60000000
      0.60000000      0.60000000      0.60000000      0.60000000      0.60000000      0.60000000      0.60000000      0.60000000      0.60000000      0.60000000      0.60000000      0.60000000      0.60000000      0.60000000      0.60000000      0.60000000      0.60000000      0.60000000      0.60000000      0.60000000
      0.60000000      0.60000000      0.60000000      0.60000000      0.60000000      0.60000000      0.60000000      0.60000000      5.00000000      5.00000000      5.00000000      5.00000000      5.00000000      5.00000000      5.00000000      5.00000000      5.00000000      5.00000000      5.00000000      5.00000000
      5.00000000      5.00000000      5.00000000      5.00000000      0.60000000      0.60000000      0.60000000      0.60000000      0.60000000      0.60000000      0.60000000      0.60000000      0.60000000      0.60000000      0.60000000      0.60000000      0.60000000      0.60000000      0.60000000      0.60000000
      0.60000000      0.60000000      0.60000000      0.60000000      0.60000000      0.60000000      0.60000000      0.60000000      0.60000000      0.60000000      0.60000000      0.60000000      0.60000000      0.60000000      0.60000000      0.60000000      0.60000000      0.60000000      0.60000000      0.60000000
      0.60000000      0.60000000      0.60000000      0.60000000      0.60000000      0.60000000      0.60000000      0.60000000      0.60000000      0.60000000      0.60000000      0.60000000      0.60000000      0.60000000      0.60000000      0.60000000      0.60000000      0.60000000      0.60000000      0.60000000
      0.60000000      0.60000000      0.60000000      0.60000000      0.60000000      0.60000000      0.60000000      0.60000000      0.60000000      0.60000000      0.60000000      0.60000000      0.60000000      0.60000000      0.60000000      0.60000000      0.60000000      0.60000000      0.60000000      0.60000000
      0.60000000      0.60000000      0.60000000      0.60000000      0.60000000      0.60000000      0.60000000      0.60000000      0.60000000      0.60000000      0.60000000      0.60000000</v>
  <i type="string" name="LREAL"> Auto</i>
  <i type="int" name="ISMEAR">     0</i>
  <i name="SIGMA">      0.05000000</i>
  <i type="int" name="LMAXMIX">     4</i>
  <v type="int" name="KPOINT_BSE">    -1     0     0     0</v>
  <i type="int" name="NELM">    40</i>
  <i type="logical" name="LDAU"> T  </i>
  <v type="int" name="LDAUTYPE">     2</v>
  <v type="int" name="LDAUL">     0     2     2     0</v>
  <v name="LDAUU">      0.00000000      3.00000000      5.00000000      0.00000000</v>
  <v name="LDAUJ">      0.00000000      0.00000000      0.00000000      0.00000000</v>
  <i type="int" name="LDAUPRINT">     1</i>
 </incar>
 <kpoints>
  <generation param="Monkhorst-Pack">
   <v type="int" name="divisions">       2        2        2 </v>
   <v name="usershift">      0.00000000       0.00000000       0.00000000 </v>
   <v name="genvec1">      0.50000000       0.00000000       0.00000000 </v>
   <v name="genvec2">     -0.00000000       0.50000000       0.00000000 </v>
   <v name="genvec3">     -0.00000000       0.00000000       0.50000000 </v>
   <v name="shift">      0.50000000       0.50000000       0.50000000 </v>
  </generation>
  <varray name="kpointlist" >
   <v>       0.25000000       0.25000000       0.25000000 </v>
   <v>      -0.25000000       0.25000000       0.25000000 </v>
   <v>       0.25000000      -0.25000000       0.25000000 </v>
   <v>      -0.25000000      -0.25000000       0.25000000 </v>
  </varray>
  <varray name="weights" >
   <v>       0.25000000 </v>
   <v>       0.25000000 </v>
   <v>       0.25000000 </v>
   <v>       0.25000000 </v>
  </varray>
 </kpoints>
 <parameters>
  <separator name="general" >
   <i type="string" name="SYSTEM">STF</i>
   <i type="logical" name="LCOMPAT"> F  </i>
  </separator>
  <separator name="electronic" >
   <i type="string" name="PREC">normal</i>
   <i name="ENMAX">    520.00000000</i>
   <i name="ENAUG">    605.39200000</i>
   <i name="EDIFF">      0.00010000</i>
   <i type="int" name="IALGO">    68</i>
   <i type="int" name="IWAVPR">    11</i>
   <i type="int" name="NBANDS">   768</i>
   <i name="NELECT">   1040.00000000</i>
   <i type="int" name="TURBO">     0</i>
   <i type="int" name="IRESTART">     0</i>
   <i type="int" name="NREBOOT">     0</i>
   <i type="int" name="NMIN">     0</i>
   <i name="EREF">      0.00000000</i>
   <separator name="electronic smearing" >
    <i type="int" name="ISMEAR">     0</i>
    <i name="SIGMA">      0.05000000</i>
    <i name="KSPACING">      0.50000000</i>
    <i type="logical" name="KGAMMA"> T  </i>
   </separator>
   <separator name="electronic projectors" >
    <i type="logical" name="LREAL"> T  </i>
    <v name="ROPT">     -0.00050000     -0.00050000     -0.00050000     -0.00050000</v>
    <i type="int" name="LMAXPAW">  -100</i>
    <i type="int" name="LMAXMIX">     4</i>
    <i type="logical" name="NLSPLINE"> F  </i>
   </separator>
   <separator name="electronic startup" >
    <i type="int" name="ISTART">     1</i>
    <i type="int" name="ICHARG">     0</i>
    <i type="int" name="INIWAV">     1</i>
   </separator>
   <separator name="electronic spin" >
    <i type="int" name="ISPIN">     2</i>
    <i type="logical" name="LNONCOLLINEAR"> F  </i>
    <v name="MAGMOM">      0.60000000      0.60000000      0.60000000      0.60000000      0.60000000      0.60000000      0.60000000      0.60000000      0.60000000      0.60000000      0.60000000      0.60000000      0.60000000      0.60000000      0.60000000      0.60000000      0.60000000      0.60000000      0.60000000      0.60000000
      0.60000000      0.60000000      0.60000000      0.60000000      0.60000000      0.60000000      0.60000000      0.60000000      0.60000000      0.60000000      0.60000000      0.60000000      0.60000000      0.60000000      0.60000000      0.60000000      0.60000000      0.60000000      0.60000000      0.60000000
      0.60000000      0.60000000      0.60000000      0.60000000      0.60000000      0.60000000      0.60000000      0.60000000      5.00000000      5.00000000      5.00000000      5.00000000      5.00000000      5.00000000      5.00000000      5.00000000      5.00000000      5.00000000      5.00000000      5.00000000
      5.00000000      5.00000000      5.00000000      5.00000000      0.60000000      0.60000000      0.60000000      0.60000000      0.60000000      0.60000000      0.60000000      0.60000000      0.60000000      0.60000000      0.60000000      0.60000000      0.60000000      0.60000000      0.60000000      0.60000000
      0.60000000      0.60000000      0.60000000      0.60000000      0.60000000      0.60000000      0.60000000      0.60000000      0.60000000      0.60000000      0.60000000      0.60000000      0.60000000      0.60000000      0.60000000      0.60000000      0.60000000      0.60000000      0.60000000      0.60000000
      0.60000000      0.60000000      0.60000000      0.60000000      0.60000000      0.60000000      0.60000000      0.60000000      0.60000000      0.60000000      0.60000000      0.60000000      0.60000000      0.60000000      0.60000000      0.60000000      0.60000000      0.60000000      0.60000000      0.60000000
      0.60000000      0.60000000      0.60000000      0.60000000      0.60000000      0.60000000      0.60000000      0.60000000      0.60000000      0.60000000      0.60000000      0.60000000      0.60000000      0.60000000      0.60000000      0.60000000      0.60000000      0.60000000      0.60000000      0.60000000
      0.60000000      0.60000000      0.60000000      0.60000000      0.60000000      0.60000000      0.60000000      0.60000000      0.60000000      0.60000000      0.60000000      0.60000000</v>
    <i name="NUPDOWN">     -1.00000000</i>
    <i type="logical" name="LSORBIT"> F  </i>
    <v name="SAXIS">      0.00000000      0.00000000      1.00000000</v>
    <i type="logical" name="LSPIRAL"> F  </i>
    <v name="QSPIRAL">      0.00000000      0.00000000      0.00000000</v>
    <i type="logical" name="LZEROZ"> F  </i>
   </separator>
   <separator name="electronic exchange-correlation" >
    <i type="logical" name="LASPH"> F  </i>
    <i type="logical" name="LMETAGGA"> F  </i>
   </separator>
   <separator name="electronic convergence" >
    <i type="int" name="NELM">    40</i>
    <i type="int" name="NELMDL">     0</i>
    <i type="int" name="NELMIN">     8</i>
    <i name="ENINI">    520.00000000</i>
    <separator name="electronic convergence detail" >
     <i type="logical" name="LDIAG"> T  </i>
     <i type="logical" name="LSUBROT"> F  </i>
     <i name="WEIMIN">      0.00100000</i>
     <i name="EBREAK">      0.00000003</i>
     <i name="DEPER">      0.30000000</i>
     <i type="int" name="NRMM">     4</i>
     <i name="TIME">      0.40000000</i>
    </separator>
   </separator>
   <separator name="electronic mixer" >
    <i name="AMIX">      0.40000000</i>
    <i name="BMIX">      1.00000000</i>
    <i name="AMIN">      0.10000000</i>
    <i name="AMIX_MAG">      1.60000000</i>
    <i name="BMIX_MAG">      1.00000000</i>
    <separator name="electronic mixer details" >
     <i type="int" name="IMIX">     4</i>
     <i type="logical" name="MIXFIRST"> F  </i>
     <i type="int" name="MAXMIX">   -45</i>
     <i name="WC">    100.00000000</i>
     <i type="int" name="INIMIX">     1</i>
     <i type="int" name="MIXPRE">     1</i>
     <i type="int" name="MREMOVE">     5</i>
    </separator>
   </separator>
   <separator name="electronic dipolcorrection" >
    <i type="logical" name="LDIPOL"> F  </i>
    <i type="logical" name="LMONO"> F  </i>
    <i type="int" name="IDIPOL">     0</i>
    <i name="EPSILON">      1.00000000</i>
    <v name="DIPOL">   -100.00000000   -100.00000000   -100.00000000</v>
    <i name="EFIELD">      0.00000000</i>
   </separator>
  </separator>
  <separator name="grids" >
   <i type="int" name="NGX">    64</i>
   <i type="int" name="NGY">    64</i>
   <i type="int" name="NGZ">    90</i>
   <i type="int" name="NGXF">   128</i>
   <i type="int" name="NGYF">   128</i>
   <i type="int" name="NGZF">   180</i>
   <i type="logical" name="ADDGRID"> F  </i>
  </separator>
  <separator name="ionic" >
   <i type="int" name="NSW">    30</i>
   <i type="int" name="IBRION">     2</i>
   <i type="int" name="ISIF">     3</i>
   <i name="PSTRESS">      0.00000000</i>
   <i name="EDIFFG">     -0.03000000</i>
   <i type="int" name="NFREE">     1</i>
   <i name="POTIM">      0.50000000</i>
   <i name="SMASS">     -3.00000000</i>
   <i name="SCALEE">      1.00000000</i>
  </separator>
  <separator name="ionic md" >
   <i name="TEBEG">      0.00010000</i>
   <i name="TEEND">      0.00010000</i>
   <i type="int" name="NBLOCK">     1</i>
   <i type="int" name="KBLOCK">    30</i>
   <i type="int" name="NPACO">   256</i>
   <i name="APACO">     16.00000000</i>
  </separator>
  <separator name="symmetry" >
   <i type="int" name="ISYM">     2</i>
   <i name="SYMPREC">      0.00001000</i>
  </separator>
  <separator name="dos" >
   <i type="logical" name="LORBIT"> F  </i>
   <v name="RWIGS">     -1.00000000     -1.00000000     -1.00000000     -1.00000000</v>
   <i type="int" name="NEDOS">   301</i>
   <i name="EMIN">     10.00000000</i>
   <i name="EMAX">    -10.00000000</i>
   <i name="EFERMI">      0.00000000</i>
  </separator>
  <separator name="writing" >
   <i type="int" name="NWRITE">     2</i>
   <i type="logical" name="LWAVE"> T  </i>
   <i type="logical" name="LCHARG"> T  </i>
   <i type="logical" name="LPARD"> F  </i>
   <i type="logical" name="LVTOT"> F  </i>
   <i type="logical" name="LVHAR"> F  </i>
   <i type="logical" name="LELF"> F  </i>
   <i type="logical" name="LOPTICS"> F  </i>
   <v name="STM">      0.00000000      0.00000000      0.00000000      0.00000000      0.00000000      0.00000000      0.00000000</v>
  </separator>
  <separator name="performance" >
   <i type="int" name="NPAR">     2</i>
   <i type="int" name="NSIM">     4</i>
   <i type="int" name="NBLK">    -1</i>
   <i type="logical" name="LPLANE"> T  </i>
   <i type="logical" name="LSCALAPACK"> T  </i>
   <i type="logical" name="LSCAAWARE"> F  </i>
   <i type="logical" name="LSCALU"> F  </i>
   <i type="logical" name="LASYNC"> F  </i>
   <i type="logical" name="LORBITALREAL"> F  </i>
  </separator>
  <separator name="miscellaneous" >
   <i type="int" name="IDIOT">     3</i>
   <i type="logical" name="LMUSIC"> F  </i>
   <v name="POMASS">     87.62000000     47.88000000     55.84700000     16.00000000</v>
   <v name="DARWINR">      0.00000000      0.00000000      0.00000000      0.00000000</v>
   <v name="DARWINV">      1.00000000      1.00000000      1.00000000      1.00000000</v>
   <i type="logical" name="LCORR"> T  </i>
  </separator>
  <i type="logical" name="GGA_COMPAT"> T  </i>
  <i type="logical" name="LBERRY"> F  </i>
  <i type="int" name="ICORELEVEL">     0</i>
  <i type="logical" name="LDAU"> T  </i>
  <v type="int" name="LDAUTYPE">     2</v>
  <v type="int" name="LDAUL">     0</v>
  <v name="LDAUU">      0.00000000</v>
  <v name="LDAUJ">      0.00000000</v>
  <i type="int" name="LDAUPRINT">     1</i>
  <i type="int" name="I_CONSTRAINED_M">     0</i>
  <separator name="electronic exchange-correlation" >
   <i type="string" name="GGA">--</i>
   <i type="int" name="VOSKOWN">     0</i>
   <i type="logical" name="LHFCALC"> F  </i>
   <i type="string" name="PRECFOCK"></i>
   <i type="logical" name="LSYMGRAD"> F  </i>
   <i type="logical" name="LHFONE"> F  </i>
   <i type="logical" name="LRHFCALC"> F  </i>
   <i type="logical" name="LTHOMAS"> F  </i>
   <i type="logical" name="LMODELHF"> F  </i>
   <i name="ENCUT4O">     -1.00000000</i>
   <i type="int" name="EXXOEP">     0</i>
   <i type="int" name="FOURORBIT">     0</i>
   <i name="AEXX">      0.00000000</i>
   <i name="HFALPHA">      0.00000000</i>
   <i name="MCALPHA">      0.00000000</i>
   <i name="ALDAX">      1.00000000</i>
   <i name="AGGAX">      1.00000000</i>
   <i name="ALDAC">      1.00000000</i>
   <i name="AGGAC">      1.00000000</i>
   <i type="int" name="NKREDX">     1</i>
   <i type="int" name="NKREDY">     1</i>
   <i type="int" name="NKREDZ">     1</i>
   <i type="logical" name="SHIFTRED"> F  </i>
   <i type="logical" name="ODDONLY"> F  </i>
   <i type="logical" name="EVENONLY"> F  </i>
   <i type="int" name="LMAXFOCK">     0</i>
   <i type="int" name="NMAXFOCKAE">     0</i>
   <i type="logical" name="LFOCKAEDFT"> F  </i>
   <i name="HFSCREEN">      0.00000000</i>
   <i name="HFSCREENC">      0.00000000</i>
   <i type="int" name="NBANDSGWLOW">     0</i>
  </separator>
  <separator name="vdW DFT" >
   <i type="logical" name="LUSE_VDW"> F  </i>
   <i name="Zab_VDW">     -0.84910000</i>
   <i name="PARAM1">      0.12340000</i>
   <i name="PARAM2">      1.00000000</i>
   <i name="PARAM3">      0.00000000</i>
  </separator>
  <separator name="model GW" >
   <i type="int" name="MODEL_GW">     0</i>
   <i name="MODEL_EPS0">      7.94981632</i>
   <i name="MODEL_ALPHA">      1.00000000</i>
  </separator>
  <separator name="linear response parameters" >
   <i type="logical" name="LEPSILON"> F  </i>
   <i type="logical" name="LRPA"> F  </i>
   <i type="logical" name="LNABLA"> F  </i>
   <i type="logical" name="LVEL"> F  </i>
   <i type="int" name="KINTER">     0</i>
   <i name="CSHIFT">      0.10000000</i>
   <i name="OMEGAMAX">     -1.00000000</i>
   <i name="DEG_THRESHOLD">      0.00200000</i>
  </separator>
  <separator name="orbital magnetization" >
   <i type="logical" name="NUCIND"> F  </i>
   <v name="MAGPOS">      0.00000000      0.00000000      0.00000000</v>
   <i type="logical" name="LNICSALL"> T  </i>
   <i type="logical" name="ORBITALMAG"> F  </i>
   <i type="logical" name="LMAGBLOCH"> F  </i>
   <i type="logical" name="LCHIMAG"> F  </i>
   <i type="logical" name="LGAUGE"> T  </i>
   <i type="int" name="MAGATOM">     0</i>
   <v name="MAGDIPOL">      0.00000000      0.00000000      0.00000000</v>
   <v name="AVECCONST">      0.00000000      0.00000000      0.00000000</v>
  </separator>
  <separator name="response functions" >
   <i type="logical" name="LADDER"> F  </i>
   <i type="logical" name="LFXC"> F  </i>
   <i type="logical" name="LHARTREE"> T  </i>
   <i type="int" name="IBSE">     0</i>
   <v type="int" name="KPOINT">    -1     0     0     0</v>
   <i type="logical" name="LTCTE"> F  </i>
   <i type="logical" name="LTETE"> F  </i>
   <i type="logical" name="LTRIPLET"> F  </i>
   <i type="logical" name="LFXCEPS"> F  </i>
   <i type="logical" name="LFXHEG"> F  </i>
   <i type="int" name="NATURALO">     0</i>
   <i type="logical" name="L2ORDER"> F  </i>
   <i type="logical" name="LUSEW"> F  </i>
   <i name="ENCUTGW">     -2.00000000</i>
   <i name="ENCUTGWSOFT">     -2.00000000</i>
   <i name="ENCUTLF">     -1.00000000</i>
   <i type="int" name="LMAXMP2">    -1</i>
   <i name="SCISSOR">      0.00000000</i>
   <i type="int" name="NOMEGA">     0</i>
   <i type="int" name="NOMEGAR">     0</i>
   <i type="int" name="NBANDSGW">    -1</i>
   <i type="int" name="NBANDSO">    -1</i>
   <i type="int" name="NBANDSV">    -1</i>
   <i type="int" name="NELM">    40</i>
   <i type="int" name="NELMHF">     1</i>
   <i type="int" name="DIM">     3</i>
   <i type="int" name="ANTIRES">     0</i>
   <i name="OMEGAMAX">    -30.00000000</i>
   <i name="OMEGAMIN">    -30.00000000</i>
   <i name="OMEGATL">   -200.00000000</i>
   <i type="int" name="OMEGAGRID">     0</i>
   <i name="CSHIFT">     -0.10000000</i>
   <i type="logical" name="SELFENERGY"> F  </i>
   <i type="logical" name="LSPECTRAL"> F  </i>
   <i type="logical" name="LSPECTRALGW"> F  </i>
   <i type="logical" name="LSINGLES"> F  </i>
   <i type="logical" name="LFERMIGW"> F  </i>
   <i type="logical" name="ODDONLYGW"> F  </i>
   <i type="logical" name="EVENONLYGW"> F  </i>
   <i type="int" name="NKREDLFX">     1</i>
   <i type="int" name="NKREDLFY">     1</i>
   <i type="int" name="NKREDLFZ">     1</i>
   <i type="int" name="MAXMEM">  1800</i>
   <i type="int" name="TELESCOPE">     0</i>
   <i type="int" name="TAUPAR">     1</i>
   <i type="int" name="OMEGAPAR">    -1</i>
   <i name="LAMBDA">      1.00000000</i>
  </separator>
  <separator name="External order field" >
   <i name="OFIELD_KAPPA">      0.00000000</i>
   <v name="OFIELD_K">      0.00000000      0.00000000      0.00000000</v>
   <i name="OFIELD_Q6_NEAR">      0.00000000</i>
   <i name="OFIELD_Q6_FAR">      0.00000000</i>
   <i name="OFIELD_A">      0.00000000</i>
  </separator>
 </parameters>
 <atominfo>
  <atoms>     152 </atoms>
  <types>       4 </types>
  <array name="atoms" >
   <dimension dim="1">ion</dimension>
   <field type="string">element</field>
   <field type="int">atomtype</field>
   <set>
    <rc><c>Sr</c><c>   1</c></rc>
    <rc><c>Sr</c><c>   1</c></rc>
    <rc><c>Sr</c><c>   1</c></rc>
    <rc><c>Sr</c><c>   1</c></rc>
    <rc><c>Sr</c><c>   1</c></rc>
    <rc><c>Sr</c><c>   1</c></rc>
    <rc><c>Sr</c><c>   1</c></rc>
    <rc><c>Sr</c><c>   1</c></rc>
    <rc><c>Sr</c><c>   1</c></rc>
    <rc><c>Sr</c><c>   1</c></rc>
    <rc><c>Sr</c><c>   1</c></rc>
    <rc><c>Sr</c><c>   1</c></rc>
    <rc><c>Sr</c><c>   1</c></rc>
    <rc><c>Sr</c><c>   1</c></rc>
    <rc><c>Sr</c><c>   1</c></rc>
    <rc><c>Sr</c><c>   1</c></rc>
    <rc><c>Sr</c><c>   1</c></rc>
    <rc><c>Sr</c><c>   1</c></rc>
    <rc><c>Sr</c><c>   1</c></rc>
    <rc><c>Sr</c><c>   1</c></rc>
    <rc><c>Sr</c><c>   1</c></rc>
    <rc><c>Sr</c><c>   1</c></rc>
    <rc><c>Sr</c><c>   1</c></rc>
    <rc><c>Sr</c><c>   1</c></rc>
    <rc><c>Sr</c><c>   1</c></rc>
    <rc><c>Sr</c><c>   1</c></rc>
    <rc><c>Sr</c><c>   1</c></rc>
    <rc><c>Sr</c><c>   1</c></rc>
    <rc><c>Sr</c><c>   1</c></rc>
    <rc><c>Sr</c><c>   1</c></rc>
    <rc><c>Sr</c><c>   1</c></rc>
    <rc><c>Sr</c><c>   1</c></rc>
    <rc><c>Ti</c><c>   2</c></rc>
    <rc><c>Ti</c><c>   2</c></rc>
    <rc><c>Ti</c><c>   2</c></rc>
    <rc><c>Ti</c><c>   2</c></rc>
    <rc><c>Ti</c><c>   2</c></rc>
    <rc><c>Ti</c><c>   2</c></rc>
    <rc><c>Ti</c><c>   2</c></rc>
    <rc><c>Ti</c><c>   2</c></rc>
    <rc><c>Ti</c><c>   2</c></rc>
    <rc><c>Ti</c><c>   2</c></rc>
    <rc><c>Ti</c><c>   2</c></rc>
    <rc><c>Ti</c><c>   2</c></rc>
    <rc><c>Ti</c><c>   2</c></rc>
    <rc><c>Ti</c><c>   2</c></rc>
    <rc><c>Ti</c><c>   2</c></rc>
    <rc><c>Ti</c><c>   2</c></rc>
    <rc><c>Fe</c><c>   3</c></rc>
    <rc><c>Fe</c><c>   3</c></rc>
    <rc><c>Fe</c><c>   3</c></rc>
    <rc><c>Fe</c><c>   3</c></rc>
    <rc><c>Fe</c><c>   3</c></rc>
    <rc><c>Fe</c><c>   3</c></rc>
    <rc><c>Fe</c><c>   3</c></rc>
    <rc><c>Fe</c><c>   3</c></rc>
    <rc><c>Fe</c><c>   3</c></rc>
    <rc><c>Fe</c><c>   3</c></rc>
    <rc><c>Fe</c><c>   3</c></rc>
    <rc><c>Fe</c><c>   3</c></rc>
    <rc><c>Fe</c><c>   3</c></rc>
    <rc><c>Fe</c><c>   3</c></rc>
    <rc><c>Fe</c><c>   3</c></rc>
    <rc><c>Fe</c><c>   3</c></rc>
    <rc><c>O </c><c>   4</c></rc>
    <rc><c>O </c><c>   4</c></rc>
    <rc><c>O </c><c>   4</c></rc>
    <rc><c>O </c><c>   4</c></rc>
    <rc><c>O </c><c>   4</c></rc>
    <rc><c>O </c><c>   4</c></rc>
    <rc><c>O </c><c>   4</c></rc>
    <rc><c>O </c><c>   4</c></rc>
    <rc><c>O </c><c>   4</c></rc>
    <rc><c>O </c><c>   4</c></rc>
    <rc><c>O </c><c>   4</c></rc>
    <rc><c>O </c><c>   4</c></rc>
    <rc><c>O </c><c>   4</c></rc>
    <rc><c>O </c><c>   4</c></rc>
    <rc><c>O </c><c>   4</c></rc>
    <rc><c>O </c><c>   4</c></rc>
    <rc><c>O </c><c>   4</c></rc>
    <rc><c>O </c><c>   4</c></rc>
    <rc><c>O </c><c>   4</c></rc>
    <rc><c>O </c><c>   4</c></rc>
    <rc><c>O </c><c>   4</c></rc>
    <rc><c>O </c><c>   4</c></rc>
    <rc><c>O </c><c>   4</c></rc>
    <rc><c>O </c><c>   4</c></rc>
    <rc><c>O </c><c>   4</c></rc>
    <rc><c>O </c><c>   4</c></rc>
    <rc><c>O </c><c>   4</c></rc>
    <rc><c>O </c><c>   4</c></rc>
    <rc><c>O </c><c>   4</c></rc>
    <rc><c>O </c><c>   4</c></rc>
    <rc><c>O </c><c>   4</c></rc>
    <rc><c>O </c><c>   4</c></rc>
    <rc><c>O </c><c>   4</c></rc>
    <rc><c>O </c><c>   4</c></rc>
    <rc><c>O </c><c>   4</c></rc>
    <rc><c>O </c><c>   4</c></rc>
    <rc><c>O </c><c>   4</c></rc>
    <rc><c>O </c><c>   4</c></rc>
    <rc><c>O </c><c>   4</c></rc>
    <rc><c>O </c><c>   4</c></rc>
    <rc><c>O </c><c>   4</c></rc>
    <rc><c>O </c><c>   4</c></rc>
    <rc><c>O </c><c>   4</c></rc>
    <rc><c>O </c><c>   4</c></rc>
    <rc><c>O </c><c>   4</c></rc>
    <rc><c>O </c><c>   4</c></rc>
    <rc><c>O </c><c>   4</c></rc>
    <rc><c>O </c><c>   4</c></rc>
    <rc><c>O </c><c>   4</c></rc>
    <rc><c>O </c><c>   4</c></rc>
    <rc><c>O </c><c>   4</c></rc>
    <rc><c>O </c><c>   4</c></rc>
    <rc><c>O </c><c>   4</c></rc>
    <rc><c>O </c><c>   4</c></rc>
    <rc><c>O </c><c>   4</c></rc>
    <rc><c>O </c><c>   4</c></rc>
    <rc><c>O </c><c>   4</c></rc>
    <rc><c>O </c><c>   4</c></rc>
    <rc><c>O </c><c>   4</c></rc>
    <rc><c>O </c><c>   4</c></rc>
    <rc><c>O </c><c>   4</c></rc>
    <rc><c>O </c><c>   4</c></rc>
    <rc><c>O </c><c>   4</c></rc>
    <rc><c>O </c><c>   4</c></rc>
    <rc><c>O </c><c>   4</c></rc>
    <rc><c>O </c><c>   4</c></rc>
    <rc><c>O </c><c>   4</c></rc>
    <rc><c>O </c><c>   4</c></rc>
    <rc><c>O </c><c>   4</c></rc>
    <rc><c>O </c><c>   4</c></rc>
    <rc><c>O </c><c>   4</c></rc>
    <rc><c>O </c><c>   4</c></rc>
    <rc><c>O </c><c>   4</c></rc>
    <rc><c>O </c><c>   4</c></rc>
    <rc><c>O </c><c>   4</c></rc>
    <rc><c>O </c><c>   4</c></rc>
    <rc><c>O </c><c>   4</c></rc>
    <rc><c>O </c><c>   4</c></rc>
    <rc><c>O </c><c>   4</c></rc>
    <rc><c>O </c><c>   4</c></rc>
    <rc><c>O </c><c>   4</c></rc>
    <rc><c>O </c><c>   4</c></rc>
    <rc><c>O </c><c>   4</c></rc>
    <rc><c>O </c><c>   4</c></rc>
    <rc><c>O </c><c>   4</c></rc>
    <rc><c>O </c><c>   4</c></rc>
    <rc><c>O </c><c>   4</c></rc>
    <rc><c>O </c><c>   4</c></rc>
   </set>
  </array>
  <array name="atomtypes" >
   <dimension dim="1">type</dimension>
   <field type="int">atomspertype</field>
   <field type="string">element</field>
   <field>mass</field>
   <field>valence</field>
   <field type="string">pseudopotential</field>
   <set>
    <rc><c>  32</c><c>Sr</c><c>     87.62000000</c><c>     10.00000000</c><c>  PAW_PBE Sr_sv 07Sep2000               </c></rc>
    <rc><c>  16</c><c>Ti</c><c>     47.88000000</c><c>      4.00000000</c><c>  PAW_PBE Ti 08Apr2002                  </c></rc>
    <rc><c>  16</c><c>Fe</c><c>     55.84700000</c><c>      8.00000000</c><c>  PAW_PBE Fe 06Sep2000                  </c></rc>
    <rc><c>  88</c><c>O </c><c>     16.00000000</c><c>      6.00000000</c><c>  PAW_PBE O 08Apr2002                   </c></rc>
   </set>
  </array>
 </atominfo>
 <structure name="initialpos" >
  <crystal>
   <varray name="basis" >
    <v>      11.25694849      -0.00499893       0.01221227 </v>
    <v>      -0.00494930      11.25845579      -0.01582452 </v>
    <v>       0.01776366      -0.02273732      15.89100670 </v>
   </varray>
   <i name="volume">   2013.95346763 </i>
   <varray name="rec_basis" >
    <v>       0.08883415       0.00003891      -0.00009925 </v>
    <v>       0.00003931       0.08882232       0.00012705 </v>
    <v>      -0.00006823       0.00008842       0.06292888 </v>
   </varray>
  </crystal>
  <varray name="positions" >
   <v>       0.98565731       0.27603768       0.12353624 </v>
   <v>       0.00844783       0.23684747       0.62874641 </v>
   <v>       0.00595431       0.72889519       0.12799206 </v>
   <v>       0.99628497       0.76547371       0.62649728 </v>
   <v>       0.51426598       0.25544221       0.13056470 </v>
   <v>       0.49348365       0.25767366       0.62541039 </v>
   <v>       0.48822953       0.73905267       0.12599549 </v>
   <v>       0.50473822       0.73827938       0.62691449 </v>
   <v>       0.00376990       0.25722982       0.37283494 </v>
   <v>       0.99444174       0.25844896       0.86741288 </v>
   <v>       0.01166096       0.74158242       0.37958699 </v>
   <v>       0.98884155       0.75071445       0.87257360 </v>
   <v>       0.49441654       0.25193825       0.37068865 </v>
   <v>       0.51276273       0.25699479       0.87305290 </v>
   <v>       0.49464054       0.74606018       0.37109282 </v>
   <v>       0.50619269       0.74107932       0.86845795 </v>
   <v>       0.26136878       0.99321434       0.12726219 </v>
   <v>       0.23637335       0.00832195       0.62287733 </v>
   <v>       0.24256021       0.50619874       0.13550157 </v>
   <v>       0.25980213       0.49414298       0.62166922 </v>
   <v>       0.75038799       0.01314511       0.12702123 </v>
   <v>       0.76053272       0.99677592       0.63203819 </v>
   <v>       0.75114869       0.48743883       0.12799537 </v>
   <v>       0.74128788       0.50227837       0.63605012 </v>
   <v>       0.25172630       0.99744481       0.39090949 </v>
   <v>       0.24959749       0.99621334       0.85949117 </v>
   <v>       0.25774108       0.50286393       0.37075064 </v>
   <v>       0.25334268       0.50114507       0.87614686 </v>
   <v>       0.74386729       0.99259167       0.37714395 </v>
   <v>       0.75612262       0.00467691       0.86609733 </v>
   <v>       0.74126837       0.49706460       0.36521034 </v>
   <v>       0.74785265       0.49484891       0.87311245 </v>
   <v>       0.00029403       0.50138092       0.99542997 </v>
   <v>       0.01534024       0.49317787       0.50094760 </v>
   <v>       0.49949414       0.99855009       0.98902948 </v>
   <v>       0.49637630       0.49112689       0.00034953 </v>
   <v>       0.49880202       0.49801646       0.49668042 </v>
   <v>       0.24840950       0.24803038       0.01543519 </v>
   <v>       0.24885514       0.74957234       0.00070130 </v>
   <v>       0.75803837       0.25514705       0.50054191 </v>
   <v>       0.73854401       0.74183366       0.00729225 </v>
   <v>       0.73710649       0.75486692       0.49931023 </v>
   <v>       0.25535861       0.75243097       0.25238405 </v>
   <v>       0.26002544       0.75973292       0.74540655 </v>
   <v>       0.74920423       0.24859390       0.74950932 </v>
   <v>       0.74514901       0.74630097       0.24661079 </v>
   <v>       0.99687123       0.98214675       0.26656968 </v>
   <v>       0.50648115       0.00574550       0.74119755 </v>
   <v>       0.02150463       0.01946107       0.98327571 </v>
   <v>       0.00070266       0.99925159       0.50382891 </v>
   <v>       0.48412433       0.99255359       0.50587842 </v>
   <v>       0.25282295       0.24449638       0.49520620 </v>
   <v>       0.24795232       0.74906019       0.50392359 </v>
   <v>       0.75317419       0.24592076       0.00076971 </v>
   <v>       0.25967416       0.25754796       0.25306565 </v>
   <v>       0.25158525       0.25460533       0.73912294 </v>
   <v>       0.74230300       0.25571544       0.25030420 </v>
   <v>       0.75212290       0.75030491       0.74762424 </v>
   <v>       0.99711802       0.99813120       0.75072305 </v>
   <v>       0.99470069       0.50019255       0.25401729 </v>
   <v>       0.98921207       0.49363246       0.74599702 </v>
   <v>       0.50253794       0.00118142       0.26261666 </v>
   <v>       0.49913549       0.50122719       0.24780207 </v>
   <v>       0.49788370       0.49661681       0.75350949 </v>
   <v>       0.12588130       0.13547350       0.75969308 </v>
   <v>       0.12023557       0.63715469       0.25680387 </v>
   <v>       0.63059029       0.11804465       0.23795612 </v>
   <v>       0.62469978       0.12434895       0.76436608 </v>
   <v>       0.62354086       0.62890626       0.22797327 </v>
   <v>       0.62377841       0.62832671       0.75246458 </v>
   <v>       0.37545521       0.37522991       0.25519171 </v>
   <v>       0.37549739       0.36560600       0.77098353 </v>
   <v>       0.38546612       0.87393007       0.23812764 </v>
   <v>       0.37780352       0.87368485       0.73181927 </v>
   <v>       0.87700509       0.36689552       0.25641226 </v>
   <v>       0.87452021       0.37070436       0.74154071 </v>
   <v>       0.87868427       0.87001489       0.26922575 </v>
   <v>       0.86997102       0.87556227       0.74651718 </v>
   <v>       0.37823505       0.12011177       0.23479546 </v>
   <v>       0.37331367       0.11942059       0.75622535 </v>
   <v>       0.37092856       0.62586597       0.25247594 </v>
   <v>       0.35985552       0.61961775       0.75664492 </v>
   <v>       0.93687427       0.10846867       0.21021647 </v>
   <v>       0.87300202       0.12658483       0.74916392 </v>
   <v>       0.86612368       0.62180459       0.24108853 </v>
   <v>       0.88246788       0.62899771       0.75945114 </v>
   <v>       0.12372596       0.37859624       0.26028770 </v>
   <v>       0.13206905       0.39505667       0.74653901 </v>
   <v>       0.13767098       0.90061125       0.24063711 </v>
   <v>       0.12386449       0.86626472       0.74725040 </v>
   <v>       0.62436573       0.37830374       0.24992508 </v>
   <v>       0.62813233       0.37441750       0.75380384 </v>
   <v>       0.62904994       0.87631122       0.24224932 </v>
   <v>       0.62156252       0.87610124       0.74427904 </v>
   <v>       0.36663466       0.36826127       0.98606613 </v>
   <v>       0.36671262       0.38550595       0.48617132 </v>
   <v>       0.36651233       0.88460906       0.01165970 </v>
   <v>       0.36500048       0.88012301       0.52041454 </v>
   <v>       0.87634954       0.38133013       0.99588071 </v>
   <v>       0.87095323       0.37536952       0.50747809 </v>
   <v>       0.87926733       0.84839426       0.48937638 </v>
   <v>       0.14743499       0.13299796       0.96142377 </v>
   <v>       0.12501169       0.12467914       0.50974782 </v>
   <v>       0.12711927       0.62735962       0.99901826 </v>
   <v>       0.13009867       0.61793864       0.48828413 </v>
   <v>       0.62564729       0.11456529       0.00330737 </v>
   <v>       0.62788645       0.62014685       0.01434758 </v>
   <v>       0.65120966       0.60024486       0.50417940 </v>
   <v>       0.12806399       0.37023533       0.99317661 </v>
   <v>       0.12028459       0.36962187       0.49280661 </v>
   <v>       0.09935093       0.88358361       0.02422682 </v>
   <v>       0.12132276       0.87062291       0.49992433 </v>
   <v>       0.61881463       0.37117761       0.00105307 </v>
   <v>       0.61072743       0.34687583       0.49448350 </v>
   <v>       0.61194670       0.87436401       0.02205040 </v>
   <v>       0.62241259       0.87329900       0.50466441 </v>
   <v>       0.38273333       0.12785741       0.01697840 </v>
   <v>       0.39038032       0.13529117       0.49774127 </v>
   <v>       0.37531819       0.63264537       0.99452038 </v>
   <v>       0.39106625       0.63511966       0.50073189 </v>
   <v>       0.88645181       0.10880151       0.01083662 </v>
   <v>       0.84741125       0.10595525       0.50384913 </v>
   <v>       0.87930160       0.63659153       0.99835492 </v>
   <v>       0.99780226       0.00088701       0.62608575 </v>
   <v>       0.00601554       0.50020264       0.12240356 </v>
   <v>       0.99279397       0.52720387       0.61979283 </v>
   <v>       0.52556508       0.02895866       0.62212166 </v>
   <v>       0.47760744       0.49136280       0.12138998 </v>
   <v>       0.49449858       0.49240322       0.62504571 </v>
   <v>       0.00857906       0.02740780       0.37729867 </v>
   <v>       0.98835605       0.97992508       0.87359273 </v>
   <v>       0.96457432       0.52179178       0.38670569 </v>
   <v>       0.01078531       0.50691805       0.87220114 </v>
   <v>       0.51315250       0.00322143       0.38263336 </v>
   <v>       0.49233975       0.98331361       0.87408606 </v>
   <v>       0.50991171       0.51362250       0.37372180 </v>
   <v>       0.50953273       0.50811942       0.87954706 </v>
   <v>       0.23511229       0.21877193       0.36775386 </v>
   <v>       0.25810507       0.76640722       0.37357879 </v>
   <v>       0.24037078       0.76187398       0.87465242 </v>
   <v>       0.74733987       0.22672971       0.37607172 </v>
   <v>       0.75829278       0.24950099       0.87638953 </v>
   <v>       0.73341426       0.73440142       0.37236964 </v>
   <v>       0.75041420       0.77862421       0.89065864 </v>
   <v>       0.21446943       0.23180505       0.12973482 </v>
   <v>       0.25806958       0.25873160       0.62159104 </v>
   <v>       0.24817298       0.74172763       0.12549950 </v>
   <v>       0.22634708       0.71898226       0.63135614 </v>
   <v>       0.75411112       0.25480126       0.12421559 </v>
   <v>       0.72982906       0.23563154       0.62336009 </v>
   <v>       0.78886793       0.78709984       0.11936664 </v>
   <v>       0.76110113       0.73592074       0.61921757 </v>
  </varray>
 </structure>
 <calculation>
  <scstep>
   <time name="dav">  597.89  597.91</time>
   <time name="total">  605.16  605.20</time>
   <energy>
    <i name="alphaZ">   5592.10412431 </i>
    <i name="ewald"> -61606.94942017 </i>
    <i name="hartreedc"> -17943.34014802 </i>
    <i name="XCdc">   3183.93275747 </i>
    <i name="pawpsdc"> 114483.17091698 </i>
    <i name="pawaedc">-113685.65435190 </i>
    <i name="eentropy">     -0.00000000 </i>
    <i name="bandstr">  -7127.09208279 </i>
    <i name="atom">  76050.17612637 </i>
    <i name="e_fr_energy">  -1053.65207775 </i>
    <i name="e_wo_entrp">  -1053.65207775 </i>
    <i name="e_0_energy">  -1053.65207775 </i>
   </energy>
  </scstep>
  <scstep>
   <time name="diag">   64.76   64.77</time>
   <time name="diis">   61.93   61.94</time>
   <time name="orth">   33.33   33.33</time>
   <time name="total">  167.22  167.28</time>
   <energy>
    <i name="e_fr_energy">  -1053.65207838 </i>
    <i name="e_wo_entrp">  -1053.65207838 </i>
    <i name="e_0_energy">  -1053.65207838 </i>
   </energy>
  </scstep>
  <scstep>
   <time name="diag">   64.72   64.73</time>
   <time name="diis">   58.53   58.55</time>
   <time name="orth">   33.35   33.35</time>
   <time name="total">  163.80  163.86</time>
   <energy>
    <i name="e_fr_energy">  -1053.65207886 </i>
    <i name="e_wo_entrp">  -1053.65207886 </i>
    <i name="e_0_energy">  -1053.65207886 </i>
   </energy>
  </scstep>
  <scstep>
   <time name="diag">   64.80   64.81</time>
   <time name="diis">   52.35   52.35</time>
   <time name="orth">   33.25   33.26</time>
   <time name="total">  157.61  157.71</time>
   <energy>
    <i name="e_fr_energy">  -1053.65207923 </i>
    <i name="e_wo_entrp">  -1053.65207923 </i>
    <i name="e_0_energy">  -1053.65207923 </i>
   </energy>
  </scstep>
  <scstep>
   <time name="diag">   64.78   64.78</time>
   <time name="diis">   51.00   51.00</time>
   <time name="orth">   33.36   33.36</time>
   <time name="total">  156.34  156.39</time>
   <energy>
    <i name="e_fr_energy">  -1053.65207941 </i>
    <i name="e_wo_entrp">  -1053.65207941 </i>
    <i name="e_0_energy">  -1053.65207941 </i>
   </energy>
  </scstep>
  <scstep>
   <time name="diag">   64.71   64.76</time>
   <time name="diis">   46.68   46.69</time>
   <time name="orth">   33.30   33.30</time>
   <time name="total">  151.89  152.01</time>
   <energy>
    <i name="e_fr_energy">  -1053.65207957 </i>
    <i name="e_wo_entrp">  -1053.65207957 </i>
    <i name="e_0_energy">  -1053.65207957 </i>
   </energy>
  </scstep>
  <scstep>
   <time name="diag">   64.63   64.63</time>
   <time name="diis">   46.12   46.14</time>
   <time name="orth">   33.36   33.36</time>
   <time name="total">  151.25  151.37</time>
   <energy>
    <i name="e_fr_energy">  -1053.65207966 </i>
    <i name="e_wo_entrp">  -1053.65207966 </i>
    <i name="e_0_energy">  -1053.65207966 </i>
   </energy>
  </scstep>
  <scstep>
   <time name="diag">   64.58   64.58</time>
   <time name="diis">   43.85   43.86</time>
   <time name="orth">   33.33   33.33</time>
   <time name="total">  142.81  142.85</time>
   <energy>
    <i name="alphaZ">   5592.10412431 </i>
    <i name="ewald"> -61606.94942017 </i>
    <i name="hartreedc"> -17943.33646305 </i>
    <i name="XCdc">   3183.93217088 </i>
    <i name="pawpsdc"> 114482.89379244 </i>
    <i name="pawaedc">-113685.37383977 </i>
    <i name="eentropy">     -0.00000000 </i>
    <i name="bandstr">  -7127.09857071 </i>
    <i name="atom">  76050.17612637 </i>
    <i name="e_fr_energy">  -1053.65207970 </i>
    <i name="e_wo_entrp">  -1053.65207970 </i>
    <i name="e_0_energy">  -1053.65207970 </i>
   </energy>
  </scstep>
  <structure>
   <crystal>
    <varray name="basis" >
     <v>      11.25694849      -0.00499893       0.01221227 </v>
     <v>      -0.00494930      11.25845579      -0.01582452 </v>
     <v>       0.01776366      -0.02273732      15.89100670 </v>
    </varray>
    <i name="volume">   2013.95346763 </i>
    <varray name="rec_basis" >
     <v>       0.08883415       0.00003891      -0.00009925 </v>
     <v>       0.00003931       0.08882232       0.00012705 </v>
     <v>      -0.00006823       0.00008842       0.06292888 </v>
    </varray>
   </crystal>
   <varray name="positions" >
    <v>       0.98565731       0.27603768       0.12353624 </v>
    <v>       0.00844783       0.23684747       0.62874641 </v>
    <v>       0.00595431       0.72889519       0.12799206 </v>
    <v>       0.99628497       0.76547371       0.62649728 </v>
    <v>       0.51426598       0.25544221       0.13056470 </v>
    <v>       0.49348365       0.25767366       0.62541039 </v>
    <v>       0.48822953       0.73905267       0.12599549 </v>
    <v>       0.50473822       0.73827938       0.62691449 </v>
    <v>       0.00376990       0.25722982       0.37283494 </v>
    <v>       0.99444174       0.25844896       0.86741288 </v>
    <v>       0.01166096       0.74158242       0.37958699 </v>
    <v>       0.98884155       0.75071445       0.87257360 </v>
    <v>       0.49441654       0.25193825       0.37068865 </v>
    <v>       0.51276273       0.25699479       0.87305290 </v>
    <v>       0.49464054       0.74606018       0.37109282 </v>
    <v>       0.50619269       0.74107932       0.86845795 </v>
    <v>       0.26136878       0.99321434       0.12726219 </v>
    <v>       0.23637335       0.00832195       0.62287733 </v>
    <v>       0.24256021       0.50619874       0.13550157 </v>
    <v>       0.25980213       0.49414298       0.62166922 </v>
    <v>       0.75038799       0.01314511       0.12702123 </v>
    <v>       0.76053272       0.99677592       0.63203819 </v>
    <v>       0.75114869       0.48743883       0.12799537 </v>
    <v>       0.74128788       0.50227837       0.63605012 </v>
    <v>       0.25172630       0.99744481       0.39090949 </v>
    <v>       0.24959749       0.99621334       0.85949117 </v>
    <v>       0.25774108       0.50286393       0.37075064 </v>
    <v>       0.25334268       0.50114507       0.87614686 </v>
    <v>       0.74386729       0.99259167       0.37714395 </v>
    <v>       0.75612262       0.00467691       0.86609733 </v>
    <v>       0.74126837       0.49706460       0.36521034 </v>
    <v>       0.74785265       0.49484891       0.87311245 </v>
    <v>       0.00029403       0.50138092       0.99542997 </v>
    <v>       0.01534024       0.49317787       0.50094760 </v>
    <v>       0.49949414       0.99855009       0.98902948 </v>
    <v>       0.49637630       0.49112689       0.00034953 </v>
    <v>       0.49880202       0.49801646       0.49668042 </v>
    <v>       0.24840950       0.24803038       0.01543519 </v>
    <v>       0.24885514       0.74957234       0.00070130 </v>
    <v>       0.75803837       0.25514705       0.50054191 </v>
    <v>       0.73854401       0.74183366       0.00729225 </v>
    <v>       0.73710649       0.75486692       0.49931023 </v>
    <v>       0.25535861       0.75243097       0.25238405 </v>
    <v>       0.26002544       0.75973292       0.74540655 </v>
    <v>       0.74920423       0.24859390       0.74950932 </v>
    <v>       0.74514901       0.74630097       0.24661079 </v>
    <v>       0.99687123       0.98214675       0.26656968 </v>
    <v>       0.50648115       0.00574550       0.74119755 </v>
    <v>       0.02150463       0.01946107       0.98327571 </v>
    <v>       0.00070266       0.99925159       0.50382891 </v>
    <v>       0.48412433       0.99255359       0.50587842 </v>
    <v>       0.25282295       0.24449638       0.49520620 </v>
    <v>       0.24795232       0.74906019       0.50392359 </v>
    <v>       0.75317419       0.24592076       0.00076971 </v>
    <v>       0.25967416       0.25754796       0.25306565 </v>
    <v>       0.25158525       0.25460533       0.73912294 </v>
    <v>       0.74230300       0.25571544       0.25030420 </v>
    <v>       0.75212290       0.75030491       0.74762424 </v>
    <v>       0.99711802       0.99813120       0.75072305 </v>
    <v>       0.99470069       0.50019255       0.25401729 </v>
    <v>       0.98921207       0.49363246       0.74599702 </v>
    <v>       0.50253794       0.00118142       0.26261666 </v>
    <v>       0.49913549       0.50122719       0.24780207 </v>
    <v>       0.49788370       0.49661681       0.75350949 </v>
    <v>       0.12588130       0.13547350       0.75969308 </v>
    <v>       0.12023557       0.63715469       0.25680387 </v>
    <v>       0.63059029       0.11804465       0.23795612 </v>
    <v>       0.62469978       0.12434895       0.76436608 </v>
    <v>       0.62354086       0.62890626       0.22797327 </v>
    <v>       0.62377841       0.62832671       0.75246458 </v>
    <v>       0.37545521       0.37522991       0.25519171 </v>
    <v>       0.37549739       0.36560600       0.77098353 </v>
    <v>       0.38546612       0.87393007       0.23812764 </v>
    <v>       0.37780352       0.87368485       0.73181927 </v>
    <v>       0.87700509       0.36689552       0.25641226 </v>
    <v>       0.87452021       0.37070436       0.74154071 </v>
    <v>       0.87868427       0.87001489       0.26922575 </v>
    <v>       0.86997102       0.87556227       0.74651718 </v>
    <v>       0.37823505       0.12011177       0.23479546 </v>
    <v>       0.37331367       0.11942059       0.75622535 </v>
    <v>       0.37092856       0.62586597       0.25247594 </v>
    <v>       0.35985552       0.61961775       0.75664492 </v>
    <v>       0.93687427       0.10846867       0.21021647 </v>
    <v>       0.87300202       0.12658483       0.74916392 </v>
    <v>       0.86612368       0.62180459       0.24108853 </v>
    <v>       0.88246788       0.62899771       0.75945114 </v>
    <v>       0.12372596       0.37859624       0.26028770 </v>
    <v>       0.13206905       0.39505667       0.74653901 </v>
    <v>       0.13767098       0.90061125       0.24063711 </v>
    <v>       0.12386449       0.86626472       0.74725040 </v>
    <v>       0.62436573       0.37830374       0.24992508 </v>
    <v>       0.62813233       0.37441750       0.75380384 </v>
    <v>       0.62904994       0.87631122       0.24224932 </v>
    <v>       0.62156252       0.87610124       0.74427904 </v>
    <v>       0.36663466       0.36826127       0.98606613 </v>
    <v>       0.36671262       0.38550595       0.48617132 </v>
    <v>       0.36651233       0.88460906       0.01165970 </v>
    <v>       0.36500048       0.88012301       0.52041454 </v>
    <v>       0.87634954       0.38133013       0.99588071 </v>
    <v>       0.87095323       0.37536952       0.50747809 </v>
    <v>       0.87926733       0.84839426       0.48937638 </v>
    <v>       0.14743499       0.13299796       0.96142377 </v>
    <v>       0.12501169       0.12467914       0.50974782 </v>
    <v>       0.12711927       0.62735962       0.99901826 </v>
    <v>       0.13009867       0.61793864       0.48828413 </v>
    <v>       0.62564729       0.11456529       0.00330737 </v>
    <v>       0.62788645       0.62014685       0.01434758 </v>
    <v>       0.65120966       0.60024486       0.50417940 </v>
    <v>       0.12806399       0.37023533       0.99317661 </v>
    <v>       0.12028459       0.36962187       0.49280661 </v>
    <v>       0.09935093       0.88358361       0.02422682 </v>
    <v>       0.12132276       0.87062291       0.49992433 </v>
    <v>       0.61881463       0.37117761       0.00105307 </v>
    <v>       0.61072743       0.34687583       0.49448350 </v>
    <v>       0.61194670       0.87436401       0.02205040 </v>
    <v>       0.62241259       0.87329900       0.50466441 </v>
    <v>       0.38273333       0.12785741       0.01697840 </v>
    <v>       0.39038032       0.13529117       0.49774127 </v>
    <v>       0.37531819       0.63264537       0.99452038 </v>
    <v>       0.39106625       0.63511966       0.50073189 </v>
    <v>       0.88645181       0.10880151       0.01083662 </v>
    <v>       0.84741125       0.10595525       0.50384913 </v>
    <v>       0.87930160       0.63659153       0.99835492 </v>
    <v>       0.99780226       0.00088701       0.62608575 </v>
    <v>       0.00601554       0.50020264       0.12240356 </v>
    <v>       0.99279397       0.52720387       0.61979283 </v>
    <v>       0.52556508       0.02895866       0.62212166 </v>
    <v>       0.47760744       0.49136280       0.12138998 </v>
    <v>       0.49449858       0.49240322       0.62504571 </v>
    <v>       0.00857906       0.02740780       0.37729867 </v>
    <v>       0.98835605       0.97992508       0.87359273 </v>
    <v>       0.96457432       0.52179178       0.38670569 </v>
    <v>       0.01078531       0.50691805       0.87220114 </v>
    <v>       0.51315250       0.00322143       0.38263336 </v>
    <v>       0.49233975       0.98331361       0.87408606 </v>
    <v>       0.50991171       0.51362250       0.37372180 </v>
    <v>       0.50953273       0.50811942       0.87954706 </v>
    <v>       0.23511229       0.21877193       0.36775386 </v>
    <v>       0.25810507       0.76640722       0.37357879 </v>
    <v>       0.24037078       0.76187398       0.87465242 </v>
    <v>       0.74733987       0.22672971       0.37607172 </v>
    <v>       0.75829278       0.24950099       0.87638953 </v>
    <v>       0.73341426       0.73440142       0.37236964 </v>
    <v>       0.75041420       0.77862421       0.89065864 </v>
    <v>       0.21446943       0.23180505       0.12973482 </v>
    <v>       0.25806958       0.25873160       0.62159104 </v>
    <v>       0.24817298       0.74172763       0.12549950 </v>
    <v>       0.22634708       0.71898226       0.63135614 </v>
    <v>       0.75411112       0.25480126       0.12421559 </v>
    <v>       0.72982906       0.23563154       0.62336009 </v>
    <v>       0.78886793       0.78709984       0.11936664 </v>
    <v>       0.76110113       0.73592074       0.61921757 </v>
   </varray>
  </structure>
  <varray name="forces" >
   <v>      -0.00785999      -0.00382065       0.01946423 </v>
   <v>      -0.00654532      -0.00190893       0.01608985 </v>
   <v>       0.00734278       0.00631323      -0.01090185 </v>
   <v>       0.00943670      -0.00148258       0.00048133 </v>
   <v>      -0.00093552       0.00556412      -0.00389368 </v>
   <v>       0.00054687      -0.00582394      -0.00688907 </v>
   <v>       0.00520624      -0.00418020       0.00135820 </v>
   <v>      -0.01354732      -0.00378588      -0.00449760 </v>
   <v>       0.00526036       0.00002142      -0.00745113 </v>
   <v>       0.00670032       0.00061271      -0.00623575 </v>
   <v>       0.00759349      -0.00932293      -0.01090081 </v>
   <v>      -0.00283985      -0.00242767      -0.00421564 </v>
   <v>      -0.00951600       0.01108612      -0.00229614 </v>
   <v>       0.00141679       0.00840049      -0.00066036 </v>
   <v>       0.00141549       0.00480483       0.00282534 </v>
   <v>       0.01280148      -0.00492925       0.00688019 </v>
   <v>      -0.00343241      -0.01615073       0.00691369 </v>
   <v>       0.00023737       0.00264825      -0.00297969 </v>
   <v>      -0.01061152       0.00478438       0.00299015 </v>
   <v>       0.00904774       0.00619152       0.00063763 </v>
   <v>       0.00021544       0.00680835       0.01300623 </v>
   <v>      -0.00747575       0.00353994       0.01224802 </v>
   <v>       0.00978496      -0.00625362      -0.00656378 </v>
   <v>      -0.00490580       0.00827723      -0.00611599 </v>
   <v>       0.00752717       0.02122253       0.00028015 </v>
   <v>      -0.00000702      -0.00261295       0.00634965 </v>
   <v>      -0.00912255       0.00668145       0.01410587 </v>
   <v>       0.00228741       0.00820917      -0.00071925 </v>
   <v>       0.00168280       0.00197820      -0.00154913 </v>
   <v>      -0.00496645      -0.00857832       0.01250277 </v>
   <v>      -0.00669659       0.00455432       0.00352527 </v>
   <v>      -0.00492854       0.00787900       0.00451786 </v>
   <v>      -0.02089639       0.00720376       0.01423918 </v>
   <v>       0.00849195       0.00378236      -0.01410397 </v>
   <v>       0.01671955       0.00822970      -0.01073366 </v>
   <v>       0.01987411       0.00171980       0.02295725 </v>
   <v>      -0.02073357      -0.01046990      -0.00399900 </v>
   <v>      -0.01877526       0.00195263      -0.01168236 </v>
   <v>      -0.00511929      -0.01489643       0.02627172 </v>
   <v>       0.00879407       0.01291110      -0.00657441 </v>
   <v>      -0.00566267      -0.02940731       0.00682175 </v>
   <v>      -0.01926620      -0.00777116      -0.01094283 </v>
   <v>      -0.00480639      -0.00906330      -0.00986342 </v>
   <v>      -0.01234132       0.00729871      -0.00051241 </v>
   <v>      -0.00290639      -0.02203833      -0.00404635 </v>
   <v>       0.01018823       0.01616993      -0.00559848 </v>
   <v>      -0.00701704      -0.00866102       0.02876646 </v>
   <v>       0.00220794       0.00205355      -0.01492263 </v>
   <v>       0.01878015      -0.00115491       0.02343132 </v>
   <v>       0.00071615      -0.00551842       0.00376979 </v>
   <v>      -0.00463403      -0.01552528       0.01047599 </v>
   <v>       0.01163230      -0.00087745      -0.02812200 </v>
   <v>       0.00896831      -0.01117938       0.01499165 </v>
   <v>      -0.00778985      -0.00961204       0.01933976 </v>
   <v>      -0.01892903      -0.00339962      -0.00339704 </v>
   <v>      -0.01331042      -0.00552249      -0.00614844 </v>
   <v>      -0.00380399       0.02709720       0.00468529 </v>
   <v>       0.00618938      -0.00614570      -0.00773644 </v>
   <v>      -0.00408259       0.00767647      -0.02382879 </v>
   <v>       0.01672034       0.00193351      -0.00299915 </v>
   <v>      -0.01045906      -0.01307169       0.00356409 </v>
   <v>      -0.00288706       0.00015558      -0.00847571 </v>
   <v>       0.02720831      -0.01510943      -0.01625652 </v>
   <v>      -0.00456083      -0.00465282       0.01512464 </v>
   <v>       0.00268627      -0.01041119      -0.01408884 </v>
   <v>       0.01460722      -0.00637812      -0.00287729 </v>
   <v>      -0.00607303      -0.02314746       0.02211807 </v>
   <v>      -0.00095863       0.00850253       0.00531204 </v>
   <v>      -0.00278609       0.00613318      -0.00309348 </v>
   <v>       0.00021300      -0.01165784       0.00005552 </v>
   <v>       0.01536479       0.01005506      -0.00411941 </v>
   <v>      -0.00042936       0.01291704      -0.00053147 </v>
   <v>       0.00270611       0.01161346       0.00722995 </v>
   <v>      -0.01649592       0.00697257      -0.00145173 </v>
   <v>      -0.00189761       0.00021542       0.00008305 </v>
   <v>      -0.00587381       0.01564297       0.00807467 </v>
   <v>      -0.01757348      -0.01951940      -0.00119206 </v>
   <v>      -0.00554157       0.01705193      -0.00167868 </v>
   <v>       0.02163633       0.00222235       0.00291915 </v>
   <v>      -0.00039740       0.01124652       0.02072837 </v>
   <v>      -0.00959110       0.01241628      -0.00086560 </v>
   <v>       0.00557583       0.02227540       0.01020940 </v>
   <v>      -0.01240325       0.02397575      -0.02434431 </v>
   <v>      -0.01318595       0.01062457       0.02069208 </v>
   <v>       0.00348122       0.00776003      -0.00056357 </v>
   <v>       0.00010505       0.01167101       0.00335060 </v>
   <v>       0.01146511       0.00436782       0.00042251 </v>
   <v>      -0.00296691      -0.00000002       0.01032275 </v>
   <v>      -0.00399750       0.00744976       0.00453033 </v>
   <v>      -0.00434786      -0.01039642       0.00187870 </v>
   <v>       0.01630288      -0.03132486      -0.00656103 </v>
   <v>      -0.00915784       0.00385499      -0.00461792 </v>
   <v>      -0.01655423       0.00111005       0.00067676 </v>
   <v>      -0.00022608      -0.01090682       0.00591792 </v>
   <v>      -0.01451639      -0.01687821       0.00268971 </v>
   <v>       0.02330206       0.00325230      -0.00604926 </v>
   <v>       0.02340481      -0.00326530      -0.01942668 </v>
   <v>       0.00601531      -0.01321199       0.01432821 </v>
   <v>       0.00885688      -0.01381916      -0.00011986 </v>
   <v>       0.02230018      -0.00157702      -0.00874840 </v>
   <v>       0.00869690      -0.01401983       0.00172089 </v>
   <v>       0.01013513       0.01734439       0.00544506 </v>
   <v>      -0.01758892      -0.01960148      -0.01301148 </v>
   <v>       0.00857151       0.02021105      -0.00736373 </v>
   <v>      -0.02726574      -0.01001492       0.01079260 </v>
   <v>      -0.01569091      -0.01247492      -0.01018189 </v>
   <v>       0.01009438       0.01575617       0.01266201 </v>
   <v>       0.01484931       0.01309956      -0.00870930 </v>
   <v>       0.00176301      -0.00496179       0.00618667 </v>
   <v>      -0.00145221      -0.00107756      -0.00418689 </v>
   <v>      -0.00147043       0.01874822      -0.00439740 </v>
   <v>      -0.00647666       0.02910504       0.00765283 </v>
   <v>       0.01244988      -0.00813447       0.00560512 </v>
   <v>       0.00544075      -0.01665344       0.00418392 </v>
   <v>      -0.00419254      -0.00372707      -0.00996116 </v>
   <v>       0.00664599       0.01571554      -0.00221270 </v>
   <v>      -0.00317693      -0.00383409      -0.00421543 </v>
   <v>      -0.00194451      -0.00142274      -0.00804437 </v>
   <v>      -0.01709710       0.01407625      -0.00579328 </v>
   <v>       0.00222824      -0.01835202      -0.00482382 </v>
   <v>      -0.00816056       0.01173553      -0.00258538 </v>
   <v>      -0.00316457      -0.00143809      -0.01100927 </v>
   <v>      -0.00699924       0.00710126      -0.00836574 </v>
   <v>       0.00126996      -0.00557667      -0.00172777 </v>
   <v>      -0.00281877       0.00049437      -0.00101421 </v>
   <v>       0.00334968       0.00130860      -0.00936063 </v>
   <v>      -0.00487009       0.00163027       0.01240876 </v>
   <v>      -0.00137624      -0.00879592      -0.00789982 </v>
   <v>      -0.01177392       0.00562307      -0.00310055 </v>
   <v>      -0.00020719      -0.00864098      -0.00332985 </v>
   <v>      -0.00367423       0.01153853      -0.00958740 </v>
   <v>      -0.00201599      -0.01512208       0.01507399 </v>
   <v>       0.00912222       0.00201357      -0.01172258 </v>
   <v>      -0.00832418      -0.00851100      -0.00794366 </v>
   <v>      -0.00329041      -0.00841739       0.00249560 </v>
   <v>      -0.00313391       0.00127928      -0.00991589 </v>
   <v>      -0.00074793      -0.00308515      -0.01465024 </v>
   <v>       0.00674635      -0.00440713       0.00804230 </v>
   <v>       0.01948512      -0.00512904      -0.00748085 </v>
   <v>       0.00424582      -0.00102002      -0.01102576 </v>
   <v>       0.00629300       0.00600668       0.01385420 </v>
   <v>      -0.00650364       0.00263788      -0.00955550 </v>
   <v>      -0.00139595      -0.00221656       0.00140482 </v>
   <v>      -0.00439935      -0.00760123       0.00648445 </v>
   <v>       0.00660683      -0.00861343       0.01073457 </v>
   <v>       0.01618033       0.00559001       0.00108731 </v>
   <v>       0.00387843       0.00866708      -0.00069369 </v>
   <v>       0.00137054      -0.00010103       0.00889435 </v>
   <v>      -0.00851673      -0.00386270      -0.01287084 </v>
   <v>       0.00677156       0.00192261       0.00162406 </v>
   <v>       0.01437788       0.00422490      -0.00562033 </v>
   <v>       0.00048477      -0.00026151       0.00199591 </v>
  </varray>
  <varray name="stress" >
   <v>      -0.01970919      -0.06843917      -0.07241995 </v>
   <v>      -0.06843937       0.05740323      -0.15031712 </v>
   <v>      -0.07242027      -0.15031652      -0.03972416 </v>
  </varray>
  <energy>
   <i name="e_fr_energy">  -1053.65207970 </i>
   <i name="e_wo_entrp">  -1053.65207970 </i>
   <i name="e_0_energy">     -0.00000000 </i>
  </energy>
  <time name="totalsc"> 1957.93 1959.99</time>
 </calculation>
 <calculation>
  <scstep>
   <time name="dav">  559.85  560.04</time>
   <time name="total">  567.08  567.34</time>
   <energy>
    <i name="alphaZ">   5592.10868482 </i>
    <i name="ewald"> -61607.19158430 </i>
    <i name="hartreedc"> -17943.02226522 </i>
    <i name="XCdc">   3183.93424526 </i>
    <i name="pawpsdc"> 114482.89172854 </i>
    <i name="pawaedc">-113685.37169869 </i>
    <i name="eentropy">     -0.00000000 </i>
    <i name="bandstr">  -7127.17647772 </i>
    <i name="atom">  76050.17612637 </i>
    <i name="e_fr_energy">  -1053.65124094 </i>
    <i name="e_wo_entrp">  -1053.65124094 </i>
    <i name="e_0_energy">  -1053.65124094 </i>
   </energy>
  </scstep>
  <scstep>
   <time name="diag">   64.75   64.76</time>
   <time name="diis">  104.32  104.35</time>
   <time name="orth">   33.33   33.33</time>
   <time name="total">  209.61  209.69</time>
   <energy>
    <i name="e_fr_energy">  -1053.65316885 </i>
    <i name="e_wo_entrp">  -1053.65316885 </i>
    <i name="e_0_energy">  -1053.65316885 </i>
   </energy>
  </scstep>
  <scstep>
   <time name="diag">   64.80   64.82</time>
   <time name="diis">   97.83   97.84</time>
   <time name="orth">   33.35   33.35</time>
   <time name="total">  203.18  203.24</time>
   <energy>
    <i name="e_fr_energy">  -1053.65335265 </i>
    <i name="e_wo_entrp">  -1053.65335265 </i>
    <i name="e_0_energy">  -1053.65335265 </i>
   </energy>
  </scstep>
  <scstep>
   <time name="diag">   64.83   64.85</time>
   <time name="diis">   70.91   70.92</time>
   <time name="orth">   33.34   33.34</time>
   <time name="total">  176.26  176.34</time>
   <energy>
    <i name="e_fr_energy">  -1053.65328674 </i>
    <i name="e_wo_entrp">  -1053.65328674 </i>
    <i name="e_0_energy">  -1053.65328674 </i>
   </energy>
  </scstep>
  <scstep>
   <time name="diag">   64.72   64.72</time>
   <time name="diis">   66.05   66.05</time>
   <time name="orth">   33.30   33.30</time>
   <time name="total">  171.25  171.32</time>
   <energy>
    <i name="e_fr_energy">  -1053.65327432 </i>
    <i name="e_wo_entrp">  -1053.65327432 </i>
    <i name="e_0_energy">  -1053.65327432 </i>
   </energy>
  </scstep>
  <scstep>
   <time name="diag">   64.80   64.81</time>
   <time name="diis">   63.46   63.47</time>
   <time name="orth">   33.37   33.37</time>
   <time name="total">  168.83  168.91</time>
   <energy>
    <i name="e_fr_energy">  -1053.65327548 </i>
    <i name="e_wo_entrp">  -1053.65327548 </i>
    <i name="e_0_energy">  -1053.65327548 </i>
   </energy>
  </scstep>
  <scstep>
   <time name="diag">   64.58   64.58</time>
   <time name="diis">   61.82   61.83</time>
   <time name="orth">   33.38   33.38</time>
   <time name="total">  166.92  166.99</time>
   <energy>
    <i name="e_fr_energy">  -1053.65327582 </i>
    <i name="e_wo_entrp">  -1053.65327582 </i>
    <i name="e_0_energy">  -1053.65327582 </i>
   </energy>
  </scstep>
  <scstep>
   <time name="diag">   64.67   64.67</time>
   <time name="diis">   60.76   60.78</time>
   <time name="orth">   33.36   33.36</time>
   <time name="total">  159.84  159.90</time>
   <energy>
    <i name="alphaZ">   5592.10868482 </i>
    <i name="ewald"> -61607.19158430 </i>
    <i name="hartreedc"> -17942.87908367 </i>
    <i name="XCdc">   3183.93712190 </i>
    <i name="pawpsdc"> 114485.98572269 </i>
    <i name="pawaedc">-113688.46517285 </i>
    <i name="eentropy">     -0.00000000 </i>
    <i name="bandstr">  -7127.32509123 </i>
    <i name="atom">  76050.17612637 </i>
    <i name="e_fr_energy">  -1053.65327628 </i>
    <i name="e_wo_entrp">  -1053.65327628 </i>
    <i name="e_0_energy">  -1053.65327628 </i>
   </energy>
  </scstep>
  <structure>
   <crystal>
    <varray name="basis" >
     <v>      11.25685976      -0.00530714       0.01188714 </v>
     <v>      -0.00525621      11.25871471      -0.01649930 </v>
     <v>       0.01730500      -0.02369130      15.89075571 </v>
    </varray>
    <i name="volume">   2013.95182520 </i>
    <varray name="rec_basis" >
     <v>       0.08883484       0.00004133      -0.00009668 </v>
     <v>       0.00004174       0.08882030       0.00013238 </v>
     <v>      -0.00006641       0.00009219       0.06292988 </v>
    </varray>
   </crystal>
   <varray name="positions" >
    <v>       0.98562353       0.27602141       0.12359534 </v>
    <v>       0.00841970       0.23683938       0.62879527 </v>
    <v>       0.00598584       0.72892219       0.12795897 </v>
    <v>       0.99632541       0.76546738       0.62649871 </v>
    <v>       0.51426200       0.25546603       0.13055291 </v>
    <v>       0.49348602       0.25764866       0.62538945 </v>
    <v>       0.48825183       0.73903478       0.12599958 </v>
    <v>       0.50468017       0.73826310       0.62690086 </v>
    <v>       0.00379248       0.25722987       0.37281231 </v>
    <v>       0.99447049       0.25845156       0.86739393 </v>
    <v>       0.01169354       0.74154242       0.37955383 </v>
    <v>       0.98882939       0.75070402       0.87256080 </v>
    <v>       0.49437579       0.25198572       0.37068176 </v>
    <v>       0.51276882       0.25703078       0.87305093 </v>
    <v>       0.49464660       0.74608079       0.37110141 </v>
    <v>       0.50624751       0.74105826       0.86847877 </v>
    <v>       0.26135400       0.99314516       0.12728312 </v>
    <v>       0.23637439       0.00833328       0.62286829 </v>
    <v>       0.24251473       0.50621924       0.13551070 </v>
    <v>       0.25984091       0.49416953       0.62167116 </v>
    <v>       0.75038886       0.01317436       0.12706074 </v>
    <v>       0.76050063       0.99679115       0.63207541 </v>
    <v>       0.75119064       0.48741201       0.12797538 </v>
    <v>       0.74126690       0.50231379       0.63603160 </v>
    <v>       0.25175860       0.99753577       0.39091041 </v>
    <v>       0.24959742       0.99620218       0.85951043 </v>
    <v>       0.25770193       0.50289263       0.37079352 </v>
    <v>       0.25335250       0.50118025       0.87614470 </v>
    <v>       0.74387452       0.99260014       0.37713925 </v>
    <v>       0.75610126       0.00464022       0.86613526 </v>
    <v>       0.74123966       0.49708412       0.36522109 </v>
    <v>       0.74783152       0.49488269       0.87312621 </v>
    <v>       0.00020442       0.50141184       0.99547330 </v>
    <v>       0.01537671       0.49319400       0.50090477 </v>
    <v>       0.49956586       0.99858532       0.98899688 </v>
    <v>       0.49646136       0.49113444       0.00041917 </v>
    <v>       0.49871317       0.49797153       0.49666830 </v>
    <v>       0.24832910       0.24803864       0.01539980 </v>
    <v>       0.24883305       0.74950866       0.00078101 </v>
    <v>       0.75807611       0.25520235       0.50052198 </v>
    <v>       0.73851966       0.74170768       0.00731285 </v>
    <v>       0.73702396       0.75483352       0.49927704 </v>
    <v>       0.25533805       0.75239206       0.25235409 </v>
    <v>       0.25997256       0.75976416       0.74540507 </v>
    <v>       0.74919175       0.24849943       0.74949695 </v>
    <v>       0.74519273       0.74637024       0.24659383 </v>
    <v>       0.99684100       0.98210980       0.26665700 </v>
    <v>       0.50649069       0.00575421       0.74115225 </v>
    <v>       0.02158500       0.01945630       0.98334678 </v>
    <v>       0.00070570       0.99922797       0.50384032 </v>
    <v>       0.48410440       0.99248712       0.50591017 </v>
    <v>       0.25287293       0.24449247       0.49512078 </v>
    <v>       0.24799066       0.74901240       0.50396903 </v>
    <v>       0.75314069       0.24587968       0.00082841 </v>
    <v>       0.25959305       0.25753333       0.25305539 </v>
    <v>       0.25152823       0.25458160       0.73910429 </v>
    <v>       0.74228672       0.25583157       0.25031856 </v>
    <v>       0.75214945       0.75027854       0.74760071 </v>
    <v>       0.99710065       0.99816394       0.75065075 </v>
    <v>       0.99477236       0.50020085       0.25400813 </v>
    <v>       0.98916721       0.49357645       0.74600782 </v>
    <v>       0.50252561       0.00118203       0.26259094 </v>
    <v>       0.49925214       0.50116240       0.24775256 </v>
    <v>       0.49786408       0.49659696       0.75355540 </v>
    <v>       0.12589286       0.13542881       0.75965025 </v>
    <v>       0.12029817       0.63712737       0.25679506 </v>
    <v>       0.63056412       0.11794559       0.23802319 </v>
    <v>       0.62469566       0.12438542       0.76438225 </v>
    <v>       0.62352894       0.62893251       0.22796391 </v>
    <v>       0.62377930       0.62827675       0.75246470 </v>
    <v>       0.37552109       0.37527300       0.25517919 </v>
    <v>       0.37549558       0.36566134       0.77098197 </v>
    <v>       0.38547771       0.87397988       0.23814963 </v>
    <v>       0.37773284       0.87371469       0.73181495 </v>
    <v>       0.87699696       0.36689644       0.25641252 </v>
    <v>       0.87449503       0.37077143       0.74156531 </v>
    <v>       0.87860892       0.86993121       0.26922210 </v>
    <v>       0.86994731       0.87563532       0.74651218 </v>
    <v>       0.37832776       0.12012135       0.23480426 </v>
    <v>       0.37331189       0.11946890       0.75628833 </v>
    <v>       0.37088748       0.62591915       0.25247340 </v>
    <v>       0.35987940       0.61971327       0.75667599 </v>
    <v>       0.93682127       0.10857124       0.21014271 </v>
    <v>       0.87294543       0.12663046       0.74922683 </v>
    <v>       0.86613862       0.62183785       0.24108684 </v>
    <v>       0.88246834       0.62904774       0.75946137 </v>
    <v>       0.12377510       0.37861498       0.26028896 </v>
    <v>       0.13205629       0.39505673       0.74657035 </v>
    <v>       0.13765385       0.90064319       0.24065091 </v>
    <v>       0.12384583       0.86622018       0.74725608 </v>
    <v>       0.62443557       0.37816950       0.24990498 </v>
    <v>       0.62809311       0.37443397       0.75378987 </v>
    <v>       0.62897899       0.87631595       0.24225143 </v>
    <v>       0.62156150       0.87605454       0.74429696 </v>
    <v>       0.36657240       0.36818893       0.98607427 </v>
    <v>       0.36681252       0.38551989       0.48615289 </v>
    <v>       0.36661272       0.88459500       0.01160063 </v>
    <v>       0.36502617       0.88006649       0.52045796 </v>
    <v>       0.87638747       0.38127094       0.99588025 </v>
    <v>       0.87104884       0.37536276       0.50745145 </v>
    <v>       0.87930457       0.84833422       0.48938151 </v>
    <v>       0.14747844       0.13307234       0.96144034 </v>
    <v>       0.12493633       0.12459503       0.50970829 </v>
    <v>       0.12715608       0.62744619       0.99899596 </v>
    <v>       0.12998175       0.61789575       0.48831694 </v>
    <v>       0.62558008       0.11451174       0.00327646 </v>
    <v>       0.62792968       0.62021446       0.01438606 </v>
    <v>       0.65127336       0.60030096       0.50415296 </v>
    <v>       0.12807151       0.37021411       0.99319536 </v>
    <v>       0.12027839       0.36961722       0.49279390 </v>
    <v>       0.09934468       0.88366391       0.02421355 </v>
    <v>       0.12129502       0.87074766       0.49994770 </v>
    <v>       0.61886794       0.37114281       0.00107001 </v>
    <v>       0.61075070       0.34680451       0.49449612 </v>
    <v>       0.61192877       0.87434797       0.02202016 </v>
    <v>       0.62244111       0.87336634       0.50465773 </v>
    <v>       0.38271973       0.12784095       0.01696560 </v>
    <v>       0.39037202       0.13528502       0.49771684 </v>
    <v>       0.37524498       0.63270562       0.99450291 </v>
    <v>       0.39107579       0.63504099       0.50071716 </v>
    <v>       0.88641687       0.10885177       0.01082884 </v>
    <v>       0.84739774       0.10594901       0.50381571 </v>
    <v>       0.87927166       0.63662189       0.99832958 </v>
    <v>       0.99780770       0.00086310       0.62608048 </v>
    <v>       0.00600346       0.50020475       0.12240049 </v>
    <v>       0.99280837       0.52720943       0.61976441 </v>
    <v>       0.52554415       0.02896571       0.62215936 </v>
    <v>       0.47760156       0.49132506       0.12136596 </v>
    <v>       0.49444815       0.49242728       0.62503636 </v>
    <v>       0.00857817       0.02737075       0.37728853 </v>
    <v>       0.98834037       0.97997446       0.87356369 </v>
    <v>       0.96456558       0.52172707       0.38675140 </v>
    <v>       0.01082446       0.50692663       0.87216553 </v>
    <v>       0.51311685       0.00318489       0.38260923 </v>
    <v>       0.49232562       0.98327755       0.87409361 </v>
    <v>       0.50989833       0.51362791       0.37369171 </v>
    <v>       0.50952959       0.50810611       0.87950257 </v>
    <v>       0.23514116       0.21875311       0.36777823 </v>
    <v>       0.25818860       0.76638524       0.37355600 </v>
    <v>       0.24038902       0.76186955       0.87461893 </v>
    <v>       0.74736679       0.22675555       0.37611379 </v>
    <v>       0.75826495       0.24951222       0.87636055 </v>
    <v>       0.73340827       0.73439192       0.37237390 </v>
    <v>       0.75039530       0.77859167       0.89067831 </v>
    <v>       0.21449768       0.23176822       0.12976735 </v>
    <v>       0.25813893       0.25875559       0.62159431 </v>
    <v>       0.24818962       0.74176477       0.12549742 </v>
    <v>       0.22635291       0.71898188       0.63138314 </v>
    <v>       0.75407468       0.25478461       0.12417653 </v>
    <v>       0.72985808       0.23563980       0.62336500 </v>
    <v>       0.78892958       0.78711793       0.11934955 </v>
    <v>       0.76110320       0.73591963       0.61922362 </v>
   </varray>
  </structure>
  <varray name="forces" >
   <v>      -0.00188730      -0.00690087       0.00884331 </v>
   <v>      -0.00493407       0.00280074       0.00555403 </v>
   <v>       0.00057722       0.00811882      -0.00648883 </v>
   <v>       0.00323211      -0.00388879      -0.00167340 </v>
   <v>      -0.00914905      -0.00618450      -0.00618451 </v>
   <v>       0.00191376       0.00049607      -0.00111984 </v>
   <v>       0.00404750       0.00723175       0.00236049 </v>
   <v>      -0.01084357      -0.00718495       0.00637250 </v>
   <v>      -0.00308426      -0.00149611       0.00035760 </v>
   <v>       0.00257904      -0.00092116      -0.00348696 </v>
   <v>       0.00202570      -0.00749822      -0.00204159 </v>
   <v>       0.00066960       0.00391827      -0.00796707 </v>
   <v>      -0.00555647       0.00434132      -0.00527426 </v>
   <v>      -0.00317270       0.00703228      -0.00445050 </v>
   <v>       0.00047412       0.00667773      -0.00336833 </v>
   <v>       0.00419278       0.00221698       0.00106845 </v>
   <v>       0.00791952      -0.00799321      -0.00038848 </v>
   <v>      -0.00180692       0.00319629      -0.00051524 </v>
   <v>      -0.00567362      -0.00095951       0.00053806 </v>
   <v>       0.00423256       0.00145816       0.01063647 </v>
   <v>      -0.00247255       0.00430083       0.00901495 </v>
   <v>      -0.00582497      -0.00017341       0.00595209 </v>
   <v>       0.01354692      -0.00578226      -0.00305425 </v>
   <v>      -0.00338417       0.00600788       0.00003895 </v>
   <v>       0.01167824       0.01006588      -0.00045840 </v>
   <v>       0.00431629      -0.00713055       0.00813437 </v>
   <v>      -0.00048675       0.00716092       0.00639696 </v>
   <v>       0.00235705       0.00771495      -0.00213836 </v>
   <v>      -0.00562211       0.00415728       0.00361541 </v>
   <v>      -0.00290628      -0.00991305       0.01271674 </v>
   <v>      -0.00394695       0.00862685       0.00699054 </v>
   <v>      -0.00518993       0.00127942      -0.00817469 </v>
   <v>      -0.00461754       0.00018698      -0.01083312 </v>
   <v>      -0.01079792      -0.01076125       0.01868607 </v>
   <v>      -0.02103703      -0.01361199       0.00555808 </v>
   <v>      -0.00066399      -0.01135990      -0.02259758 </v>
   <v>       0.01538221       0.00156879       0.00675581 </v>
   <v>       0.00668257      -0.00448595       0.01330056 </v>
   <v>       0.01905065       0.02310090      -0.02199455 </v>
   <v>       0.00826712      -0.01007741       0.00203466 </v>
   <v>       0.02261888       0.03880825      -0.00577367 </v>
   <v>       0.00854995       0.00778122       0.00352168 </v>
   <v>       0.01227369       0.00906596       0.00597193 </v>
   <v>      -0.00298356       0.00287145       0.02406362 </v>
   <v>      -0.01339665       0.02358932      -0.00282257 </v>
   <v>      -0.00667146       0.00832453      -0.00196979 </v>
   <v>      -0.03134143       0.02141617      -0.04168709 </v>
   <v>      -0.00629770      -0.00632274       0.01499536 </v>
   <v>      -0.00593714       0.01763796      -0.00778689 </v>
   <v>      -0.01055219      -0.00650257       0.00529807 </v>
   <v>       0.00358342      -0.00616539      -0.00356352 </v>
   <v>      -0.00532393      -0.00434874      -0.00451051 </v>
   <v>      -0.00470592      -0.00080703       0.00850742 </v>
   <v>       0.00000908      -0.01617988      -0.00610440 </v>
   <v>       0.00933947       0.00725197      -0.00996555 </v>
   <v>       0.00192000       0.00126892       0.00045411 </v>
   <v>       0.00483358      -0.01657073       0.00797172 </v>
   <v>       0.00159412      -0.00615436      -0.00787738 </v>
   <v>      -0.00245160       0.00030881      -0.00581717 </v>
   <v>       0.00360740       0.00562588       0.00169866 </v>
   <v>      -0.00367317       0.00083660      -0.00163897 </v>
   <v>      -0.00322808      -0.00067912      -0.00390277 </v>
   <v>       0.01097855       0.00237863      -0.00146096 </v>
   <v>      -0.00043053      -0.00247678       0.00614113 </v>
   <v>      -0.00105146      -0.00943829      -0.01457671 </v>
   <v>       0.00356033      -0.01250686      -0.00465045 </v>
   <v>       0.00689227      -0.00269276       0.01666399 </v>
   <v>      -0.00670267      -0.00255510       0.00138869 </v>
   <v>      -0.00092234      -0.00232888      -0.00555569 </v>
   <v>       0.00342701      -0.00363549      -0.00073417 </v>
   <v>       0.00038975      -0.00368700      -0.00416831 </v>
   <v>      -0.00919818       0.00721044      -0.00301786 </v>
   <v>      -0.00915464       0.00077960       0.00276768 </v>
   <v>      -0.00910595       0.01655753      -0.00635879 </v>
   <v>       0.00529508       0.00821885      -0.00161261 </v>
   <v>      -0.01436914       0.00006291       0.00571786 </v>
   <v>       0.00540841       0.00286226       0.00337389 </v>
   <v>      -0.00732412       0.01467257      -0.00242120 </v>
   <v>       0.00656222       0.01206267       0.00295079 </v>
   <v>       0.00219933       0.00577630       0.01371361 </v>
   <v>       0.00190305      -0.00272788      -0.00796610 </v>
   <v>       0.00261882       0.01316422       0.00708836 </v>
   <v>       0.01171956      -0.03821904       0.01974624 </v>
   <v>       0.00150707       0.00032791       0.01171562 </v>
   <v>       0.01024140       0.00101965      -0.00017914 </v>
   <v>       0.00096572       0.00770622       0.00263462 </v>
   <v>       0.00767237       0.00536678       0.00379686 </v>
   <v>      -0.00085533      -0.00703163       0.00413087 </v>
[...]
       <r>   -17.0963     0.0000    32.0000 </r>
       <r>   -16.9428     0.0000    32.0000 </r>
       <r>   -16.7894     0.0000    32.0000 </r>
       <r>   -16.6359     0.0000    32.0000 </r>
       <r>   -16.4824     0.0000    32.0000 </r>
       <r>   -16.3289     0.0000    32.0000 </r>
       <r>   -16.1755     0.0000    32.0000 </r>
       <r>   -16.0220     0.0000    32.0000 </r>
       <r>   -15.8685     0.0000    32.0000 </r>
       <r>   -15.7150     0.0000    32.0000 </r>
       <r>   -15.5616     0.0000    32.0000 </r>
       <r>   -15.4081     0.0010    32.0002 </r>
       <r>   -15.2546     5.0645    32.7774 </r>
       <r>   -15.1012    15.6257    35.1756 </r>
       <r>   -14.9477    38.5743    41.0957 </r>
       <r>   -14.7942    40.8227    47.3609 </r>
       <r>   -14.6407    39.7550    53.4622 </r>
       <r>   -14.4873    42.2790    59.9509 </r>
       <r>   -14.3338    47.8900    67.3008 </r>
       <r>   -14.1803    58.4402    76.2698 </r>
       <r>   -14.0268    77.3115    88.1350 </r>
       <r>   -13.8734    71.9877    99.1832 </r>
       <r>   -13.7199    60.2147   108.4246 </r>
       <r>   -13.5664    37.8550   114.2343 </r>
       <r>   -13.4129    25.5544   118.1562 </r>
       <r>   -13.2595    12.0045   119.9986 </r>
       <r>   -13.1060     0.0092   120.0000 </r>
       <r>   -12.9525     0.0065   120.0010 </r>
       <r>   -12.7991    13.8252   122.1228 </r>
       <r>   -12.6456    72.8549   133.3041 </r>
       <r>   -12.4921   113.6845   150.7516 </r>
       <r>   -12.3386   124.2492   169.8206 </r>
       <r>   -12.1852    98.5736   184.9490 </r>
       <r>   -12.0317    95.6323   199.6260 </r>
       <r>   -11.8782    66.2183   209.7887 </r>
       <r>   -11.7247    33.4450   214.9216 </r>
       <r>   -11.5713     6.7797   215.9621 </r>
       <r>   -11.4178     0.2467   216.0000 </r>
       <r>   -11.2643     0.0000   216.0000 </r>
       <r>   -11.1108     0.0000   216.0000 </r>
       <r>   -10.9574     0.0000   216.0000 </r>
       <r>   -10.8039     0.0000   216.0000 </r>
       <r>   -10.6504     0.0000   216.0000 </r>
       <r>   -10.4970     0.0000   216.0000 </r>
       <r>   -10.3435     0.0000   216.0000 </r>
       <r>   -10.1900     0.0000   216.0000 </r>
       <r>   -10.0365     0.0000   216.0000 </r>
       <r>    -9.8831     0.0000   216.0000 </r>
       <r>    -9.7296     0.0000   216.0000 </r>
       <r>    -9.5761     0.0000   216.0000 </r>
       <r>    -9.4226     0.0000   216.0000 </r>
       <r>    -9.2692     0.0000   216.0000 </r>
       <r>    -9.1157     0.0000   216.0000 </r>
       <r>    -8.9622     0.0000   216.0000 </r>
       <r>    -8.8088     0.0000   216.0000 </r>
       <r>    -8.6553     0.0000   216.0000 </r>
       <r>    -8.5018     0.0000   216.0000 </r>
       <r>    -8.3483     0.0000   216.0000 </r>
       <r>    -8.1949     0.0000   216.0000 </r>
       <r>    -8.0414     0.0000   216.0000 </r>
       <r>    -7.8879     0.0000   216.0000 </r>
       <r>    -7.7344     0.0000   216.0000 </r>
       <r>    -7.5810     0.0000   216.0000 </r>
       <r>    -7.4275     0.0000   216.0000 </r>
       <r>    -7.2740     0.0000   216.0000 </r>
       <r>    -7.1205     0.0000   216.0000 </r>
       <r>    -6.9671     0.0000   216.0000 </r>
       <r>    -6.8136     0.0000   216.0000 </r>
       <r>    -6.6601     0.0000   216.0000 </r>
       <r>    -6.5067     0.0000   216.0000 </r>
       <r>    -6.3532     0.0000   216.0000 </r>
       <r>    -6.1997     0.0000   216.0000 </r>
       <r>    -6.0462     0.0000   216.0000 </r>
       <r>    -5.8928     0.0000   216.0000 </r>
       <r>    -5.7393     0.0000   216.0000 </r>
       <r>    -5.5858     0.0000   216.0000 </r>
       <r>    -5.4323     0.0000   216.0000 </r>
       <r>    -5.2789     0.0000   216.0000 </r>
       <r>    -5.1254     0.0000   216.0000 </r>
       <r>    -4.9719     0.0000   216.0000 </r>
       <r>    -4.8184     0.0000   216.0000 </r>
       <r>    -4.6650     0.6449   216.0990 </r>
       <r>    -4.5115     6.2080   217.0517 </r>
       <r>    -4.3580     7.1125   218.1433 </r>
       <r>    -4.2046    13.1812   220.1663 </r>
       <r>    -4.0511     5.4315   220.9999 </r>
       <r>    -3.8976     0.0008   221.0000 </r>
       <r>    -3.7441     0.0000   221.0000 </r>
       <r>    -3.5907     0.0000   221.0000 </r>
       <r>    -3.4372     0.0000   221.0000 </r>
       <r>    -3.2837     0.0000   221.0000 </r>
       <r>    -3.1302     0.0000   221.0000 </r>
       <r>    -2.9768     0.0000   221.0000 </r>
       <r>    -2.8233     0.0000   221.0000 </r>
       <r>    -2.6698     0.0000   221.0000 </r>
       <r>    -2.5163     1.6249   221.2494 </r>
       <r>    -2.3629    12.2420   223.1282 </r>
       <r>    -2.2094    13.3528   225.1775 </r>
       <r>    -2.0559    23.9898   228.8593 </r>
       <r>    -1.9025    26.9582   232.9966 </r>
       <r>    -1.7490    32.6434   238.0065 </r>
       <r>    -1.5955    34.0177   243.2273 </r>
       <r>    -1.4420    48.9956   250.7469 </r>
       <r>    -1.2886    52.4875   258.8023 </r>
       <r>    -1.1351    67.9287   269.2275 </r>
       <r>    -0.9816    73.5337   280.5130 </r>
       <r>    -0.8281    76.4428   292.2449 </r>
       <r>    -0.6747    88.3089   305.7980 </r>
       <r>    -0.5212    91.0275   319.7683 </r>
       <r>    -0.3677    87.3780   333.1784 </r>
       <r>    -0.2142    70.3734   343.9789 </r>
       <r>    -0.0608    58.1473   352.9029 </r>
       <r>     0.0927    56.1892   361.5265 </r>
       <r>     0.2462    52.1904   369.5363 </r>
       <r>     0.3996    54.6850   377.9290 </r>
       <r>     0.5531    53.9165   386.2037 </r>
       <r>     0.7066    56.7113   394.9074 </r>
       <r>     0.8601    51.8424   402.8638 </r>
       <r>     1.0135    58.0232   411.7689 </r>
       <r>     1.1670    61.4753   421.2037 </r>
       <r>     1.3205    69.1573   431.8175 </r>
       <r>     1.4740    70.2180   442.5941 </r>
       <r>     1.6274    75.4297   454.1705 </r>
       <r>     1.7809    63.0939   463.8537 </r>
       <r>     1.9344    49.8978   471.5117 </r>
       <r>     2.0879    37.6717   477.2933 </r>
       <r>     2.2413    36.5726   482.9062 </r>
       <r>     2.3948    13.6316   484.9983 </r>
       <r>     2.5483     0.0110   485.0000 </r>
       <r>     2.7017     0.0000   485.0000 </r>
       <r>     2.8552     0.0000   485.0000 </r>
       <r>     3.0087     0.0000   485.0000 </r>
       <r>     3.1622     0.0000   485.0000 </r>
       <r>     3.3156     0.0000   485.0000 </r>
       <r>     3.4691     0.0000   485.0000 </r>
       <r>     3.6226     0.0000   485.0000 </r>
       <r>     3.7761     0.0000   485.0000 </r>
       <r>     3.9295     0.0000   485.0000 </r>
       <r>     4.0830     0.0000   485.0000 </r>
       <r>     4.2365     0.0000   485.0000 </r>
       <r>     4.3900     0.0198   485.0030 </r>
       <r>     4.5434    20.5209   488.1524 </r>
       <r>     4.6969    61.0903   497.5282 </r>
       <r>     4.8504    41.8070   503.9444 </r>
       <r>     5.0038    52.5106   512.0034 </r>
       <r>     5.1573    67.1196   522.3045 </r>
       <r>     5.3108    65.1246   532.2994 </r>
       <r>     5.4643    79.8642   544.5564 </r>
       <r>     5.6177    75.8140   556.1918 </r>
       <r>     5.7712    69.3745   566.8389 </r>
       <r>     5.9247    76.2152   578.5359 </r>
       <r>     6.0782    64.2371   588.3946 </r>
       <r>     6.2316    62.9897   598.0619 </r>
       <r>     6.3851    51.0538   605.8972 </r>
       <r>     6.5386    30.2649   610.5421 </r>
       <r>     6.6921    23.4400   614.1395 </r>
       <r>     6.8455    20.1626   617.2339 </r>
       <r>     6.9990    15.0178   619.5388 </r>
       <r>     7.1525    11.9440   621.3719 </r>
       <r>     7.3059    12.4627   623.2845 </r>
       <r>     7.4594    11.8985   625.1106 </r>
       <r>     7.6129    15.3431   627.4654 </r>
       <r>     7.7664    18.6527   630.3281 </r>
       <r>     7.9198    19.8612   633.3762 </r>
       <r>     8.0733    22.7055   636.8609 </r>
       <r>     8.2268    24.6618   640.6459 </r>
       <r>     8.3803    26.1844   644.6645 </r>
       <r>     8.5337    31.0306   649.4268 </r>
       <r>     8.6872    30.8618   654.1633 </r>
       <r>     8.8407    31.7731   659.0396 </r>
       <r>     8.9942    27.5028   663.2605 </r>
       <r>     9.1476    30.6360   667.9623 </r>
       <r>     9.3011    41.0816   674.2673 </r>
       <r>     9.4546    46.5599   681.4130 </r>
       <r>     9.6080    49.1676   688.9589 </r>
       <r>     9.7615    56.1772   697.5806 </r>
       <r>     9.9150    59.0180   706.6383 </r>
       <r>    10.0685    55.0043   715.0800 </r>
       <r>    10.2219    51.7513   723.0224 </r>
       <r>    10.3754    55.6082   731.5568 </r>
       <r>    10.5289    55.0822   740.0104 </r>
       <r>    10.6824    52.5743   748.0792 </r>
       <r>    10.8358    53.1912   756.2426 </r>
       <r>    10.9893    56.3744   764.8946 </r>
       <r>    11.1428    20.2214   767.9980 </r>
       <r>    11.2963     0.0128   768.0000 </r>
       <r>    11.4497     0.0000   768.0000 </r>
       <r>    11.6032     0.0000   768.0000 </r>
       <r>    11.7567     0.0000   768.0000 </r>
       <r>    11.9101     0.0000   768.0000 </r>
       <r>    12.0636     0.0000   768.0000 </r>
       <r>    12.2171     0.0000   768.0000 </r>
       <r>    12.3706     0.0000   768.0000 </r>
       <r>    12.5240     0.0000   768.0000 </r>
       <r>    12.6775     0.0000   768.0000 </r>
       <r>    12.8310     0.0000   768.0000 </r>
       <r>    12.9845     0.0000   768.0000 </r>
       <r>    13.1379     0.0000   768.0000 </r>
      </set>
     </set>
    </array>
   </total>
  </dos>
 </calculation>
 <structure name="finalpos" >
  <crystal>
   <varray name="basis" >
    <v>      11.25728680      -0.00548632       0.01128836 </v>
    <v>      -0.00543343      11.25937925      -0.01743555 </v>
    <v>       0.01646038      -0.02501515      15.89052355 </v>
   </varray>
   <i name="volume">   2014.11736243 </i>
   <varray name="rec_basis" >
    <v>       0.08883146       0.00004272      -0.00009195 </v>
    <v>       0.00004314       0.08881508       0.00013977 </v>
    <v>      -0.00006306       0.00009742       0.06293081 </v>
   </varray>
  </crystal>
  <varray name="positions" >
   <v>       0.98557279       0.27596429       0.12371049 </v>
   <v>       0.00834549       0.23685068       0.62887874 </v>
   <v>       0.00604795       0.72901898       0.12788647 </v>
   <v>       0.99640059       0.76542287       0.62647739 </v>
   <v>       0.51416785       0.25543853       0.13050178 </v>
   <v>       0.49349696       0.25762092       0.62535289 </v>
   <v>       0.48832126       0.73906292       0.12602361 </v>
   <v>       0.50449693       0.73818148       0.62692883 </v>
   <v>       0.00379578       0.25721601       0.37279817 </v>
   <v>       0.99451890       0.25844441       0.86735861 </v>
   <v>       0.01175642       0.74143780       0.37949537 </v>
   <v>       0.98882690       0.75073548       0.87250068 </v>
   <v>       0.49427837       0.25207499       0.37063850 </v>
   <v>       0.51274268       0.25712612       0.87301534 </v>
   <v>       0.49464665       0.74615617       0.37108350 </v>
   <v>       0.50635292       0.74105158       0.86851285 </v>
   <v>       0.26141461       0.99298958       0.12731564 </v>
   <v>       0.23635716       0.00837750       0.62284433 </v>
   <v>       0.24241563       0.50623870       0.13552553 </v>
   <v>       0.25992306       0.49420005       0.62173926 </v>
   <v>       0.75036264       0.01324673       0.12716018 </v>
   <v>       0.76040411       0.99681195       0.63215576 </v>
   <v>       0.75135353       0.48733308       0.12793418 </v>
   <v>       0.74120218       0.50241458       0.63600559 </v>
   <v>       0.25188827       0.99770451       0.39091407 </v>
   <v>       0.24963192       0.99613684       0.85957731 </v>
   <v>       0.25766768       0.50300682       0.37087889 </v>
   <v>       0.25337636       0.50129584       0.87614185 </v>
   <v>       0.74382015       0.99265267       0.37716220 </v>
   <v>       0.75605815       0.00452311       0.86625102 </v>
   <v>       0.74118196       0.49719553       0.36527200 </v>
   <v>       0.74776407       0.49492251       0.87309568 </v>
   <v>       0.00008615       0.50144055       0.99546217 </v>
   <v>       0.01535938       0.49310739       0.50094006 </v>
   <v>       0.49949701       0.99853240       0.98895767 </v>
   <v>       0.49656313       0.49104871       0.00040156 </v>
   <v>       0.49874937       0.49793033       0.49667142 </v>
   <v>       0.24828011       0.24804737       0.01545992 </v>
   <v>       0.24894217       0.74956087       0.00075026 </v>
   <v>       0.75819280       0.25517460       0.50050727 </v>
   <v>       0.73857686       0.74179529       0.00733647 </v>
   <v>       0.73700544       0.75489907       0.49925400 </v>
   <v>       0.25542478       0.75242350       0.25237624 </v>
   <v>       0.25989946       0.75984782       0.74549374 </v>
   <v>       0.74909807       0.24852745       0.74948565 </v>
   <v>       0.74520746       0.74642945       0.24655922 </v>
   <v>       0.99665073       0.98210904       0.26661657 </v>
   <v>       0.50643110       0.00571684       0.74120339 </v>
   <v>       0.02159632       0.01962036       0.98336481 </v>
   <v>       0.00062927       0.99914985       0.50386303 </v>
   <v>       0.48409827       0.99235933       0.50592099 </v>
   <v>       0.25286563       0.24444143       0.49500080 </v>
   <v>       0.24797628       0.74896572       0.50406167 </v>
   <v>       0.75311369       0.24569463       0.00082590 </v>
   <v>       0.25961780       0.25761399       0.25299446 </v>
   <v>       0.25149694       0.25455975       0.73906640 </v>
   <v>       0.74231634       0.25580457       0.25038369 </v>
   <v>       0.75219255       0.75021748       0.74751014 </v>
   <v>       0.99704759       0.99821052       0.75056161 </v>
   <v>       0.99487818       0.50028399       0.25401016 </v>
   <v>       0.98909210       0.49353766       0.74602018 </v>
   <v>       0.50247132       0.00118253       0.26255854 </v>
   <v>       0.49945093       0.50112525       0.24768715 </v>
   <v>       0.49783137       0.49655410       0.75363671 </v>
   <v>       0.12590277       0.13529061       0.75949681 </v>
   <v>       0.12040788       0.63697982       0.25675022 </v>
   <v>       0.63062697       0.11781158       0.23821247 </v>
   <v>       0.62462569       0.12439806       0.76440665 </v>
   <v>       0.62353106       0.62894387       0.22791078 </v>
   <v>       0.62381460       0.62818035       0.75246648 </v>
   <v>       0.37558050       0.37526322       0.25514006 </v>
   <v>       0.37540341       0.36581415       0.77095700 </v>
   <v>       0.38541417       0.87405875       0.23818009 </v>
   <v>       0.37753222       0.87390350       0.73176914 </v>
   <v>       0.87703556       0.36695563       0.25639335 </v>
   <v>       0.87433952       0.37086852       0.74163320 </v>
   <v>       0.87854527       0.86987086       0.26924022 </v>
   <v>       0.86983106       0.87584132       0.74649833 </v>
   <v>       0.37849639       0.12024760       0.23482726 </v>
   <v>       0.37333051       0.11959031       0.75645939 </v>
   <v>       0.37088365       0.62594665       0.25241159 </v>
   <v>       0.35995187       0.61994740       0.75676603 </v>
   <v>       0.93678643       0.10847508       0.21011944 </v>
   <v>       0.87289126       0.12670329       0.74937594 </v>
   <v>       0.86623859       0.62190626       0.24108237 </v>
   <v>       0.88249371       0.62917161       0.75948693 </v>
   <v>       0.12390661       0.37867559       0.26031730 </v>
   <v>       0.13201733       0.39498765       0.74663233 </v>
   <v>       0.13749303       0.90073109       0.24072350 </v>
   <v>       0.12369016       0.86614747       0.74725481 </v>
   <v>       0.62447770       0.37797121       0.24984735 </v>
   <v>       0.62799265       0.37443232       0.75372402 </v>
   <v>       0.62886802       0.87619167       0.24222087 </v>
   <v>       0.62149194       0.87596859       0.74433175 </v>
   <v>       0.36657029       0.36812942       0.98609826 </v>
   <v>       0.36698885       0.38544916       0.48605732 </v>
   <v>       0.36678993       0.88446933       0.01148374 </v>
   <v>       0.36510026       0.87982673       0.52061186 </v>
   <v>       0.87650451       0.38117174       0.99589060 </v>
   <v>       0.87127073       0.37528089       0.50737840 </v>
   <v>       0.87936657       0.84808145       0.48938856 </v>
   <v>       0.14743100       0.13314624       0.96140177 </v>
   <v>       0.12485891       0.12454047       0.50960340 </v>
   <v>       0.12707741       0.62758274       0.99897739 </v>
   <v>       0.12988462       0.61803375       0.48836755 </v>
   <v>       0.62555470       0.11449287       0.00320414 </v>
   <v>       0.62786977       0.62012710       0.01453140 </v>
   <v>       0.65133593       0.60034737       0.50406017 </v>
   <v>       0.12799329       0.37027223       0.99327938 </v>
   <v>       0.12039042       0.36955943       0.49272160 </v>
   <v>       0.09938894       0.88384031       0.02424646 </v>
   <v>       0.12141184       0.87092358       0.50001163 </v>
   <v>       0.61895380       0.37115937       0.00114147 </v>
   <v>       0.61080097       0.34671223       0.49452824 </v>
   <v>       0.61198062       0.87424981       0.02196025 </v>
   <v>       0.62251312       0.87358124       0.50463878 </v>
   <v>       0.38265889       0.12778042       0.01692527 </v>
   <v>       0.39035166       0.13520316       0.49764042 </v>
   <v>       0.37518675       0.63270993       0.99449370 </v>
   <v>       0.39098114       0.63486247       0.50066859 </v>
   <v>       0.88639286       0.10892445       0.01081135 </v>
   <v>       0.84734439       0.10590987       0.50372741 </v>
   <v>       0.87927415       0.63658189       0.99828053 </v>
   <v>       0.99778183       0.00083591       0.62609054 </v>
   <v>       0.00596138       0.50024977       0.12240604 </v>
   <v>       0.99282111       0.52721079       0.61973519 </v>
   <v>       0.52546089       0.02900542       0.62218016 </v>
   <v>       0.47760431       0.49121368       0.12133900 </v>
   <v>       0.49432043       0.49251196       0.62496232 </v>
   <v>       0.00854058       0.02728591       0.37729522 </v>
   <v>       0.98836622       0.98019032       0.87358887 </v>
   <v>       0.96455763       0.52159937       0.38670947 </v>
   <v>       0.01091430       0.50697305       0.87219025 </v>
   <v>       0.51296125       0.00303706       0.38262344 </v>
   <v>       0.49231677       0.98316964       0.87403142 </v>
   <v>       0.50989970       0.51362676       0.37361021 </v>
   <v>       0.50953500       0.50805604       0.87958503 </v>
   <v>       0.23523180       0.21874620       0.36777450 </v>
   <v>       0.25838559       0.76630991       0.37356535 </v>
   <v>       0.24038370       0.76188987       0.87460576 </v>
   <v>       0.74746706       0.22688807       0.37613965 </v>
   <v>       0.75817597       0.24956879       0.87636619 </v>
   <v>       0.73337334       0.73437680       0.37233434 </v>
   <v>       0.75036209       0.77844528       0.89074347 </v>
   <v>       0.21451391       0.23169153       0.12985069 </v>
   <v>       0.25833162       0.25880987       0.62151853 </v>
   <v>       0.24820930       0.74190411       0.12551756 </v>
   <v>       0.22636253       0.71893361       0.63134743 </v>
   <v>       0.75393090       0.25472383       0.12415905 </v>
   <v>       0.72996223       0.23564267       0.62335750 </v>
   <v>       0.78913163       0.78718763       0.11931655 </v>
   <v>       0.76108157       0.73592736       0.61921239 </v>
  </varray>
 </structure>
</modeling>
