       N       E                     dE             d eps       ncg     rms          rms(c)
DAV:   1    -0.112155402771E+04   -0.11216E+04   -0.10959E-01 13528   0.758E-01    0.328E-02
RMM:   2    -0.112155402884E+04   -0.11251E-05   -0.65820E-05  7223   0.133E-02    0.561E-02
RMM:   3    -0.112155403024E+04   -0.14013E-05   -0.24112E-05  7007   0.899E-03    0.103E-02
RMM:   4    -0.112155403239E+04   -0.21547E-05   -0.15757E-05  6138   0.463E-03    0.932E-03
RMM:   5    -0.112155403366E+04   -0.12654E-05   -0.86106E-06  5741   0.480E-03    0.106E-02
RMM:   6    -0.112155403495E+04   -0.12915E-05   -0.66722E-06  5078   0.323E-03    0.327E-03
RMM:   7    -0.112155403541E+04   -0.45379E-06   -0.37007E-06  4363   0.329E-03    0.288E-03
RMM:   8    -0.112155403568E+04   -0.27849E-06   -0.24140E-06  3307   0.241E-03
   1 F= -.11215540E+04 E0= -.11215540E+04  d E =-.112155E+04  mag=    40.0000
       N       E                     dE             d eps       ncg     rms          rms(c)
DAV:   1    -0.112156466422E+04   -0.10629E-01   -0.31259E+00 12640   0.212E+00    0.918E-01
RMM:   2    -0.112156574988E+04   -0.10857E-02   -0.10517E-01 12318   0.431E-01    0.721E-01
RMM:   3    -0.112156419706E+04    0.15528E-02   -0.68975E-03 12892   0.149E-01    0.428E-01
RMM:   4    -0.112156349137E+04    0.70569E-03   -0.28859E-03 13116   0.598E-02    0.282E-01
RMM:   5    -0.112156327235E+04    0.21902E-03   -0.66361E-04 11546   0.349E-02    0.171E-01
RMM:   6    -0.112156327246E+04   -0.10955E-06   -0.13632E-04  7871   0.138E-02    0.670E-02
RMM:   7    -0.112156326636E+04    0.60994E-05   -0.67319E-05  7313   0.116E-02    0.452E-02
RMM:   8    -0.112156325982E+04    0.65422E-05   -0.40623E-05  7195   0.866E-03
   2 F= -.11215633E+04 E0= -.11215633E+04  d E =-.922413E-02  mag=    40.0000
       N       E                     dE             d eps       ncg     rms          rms(c)
DAV:   1    -0.112156330694E+04   -0.40580E-04   -0.17505E-02 13952   0.159E-01    0.677E-02
RMM:   2    -0.112156331624E+04   -0.93005E-05   -0.60572E-04 11383   0.319E-02    0.493E-02
RMM:   3    -0.112156330758E+04    0.86562E-05   -0.32234E-05  7011   0.107E-02    0.316E-02
RMM:   4    -0.112156330425E+04    0.33338E-05   -0.15854E-05  6878   0.547E-03    0.205E-02
RMM:   5    -0.112156330163E+04    0.26181E-05   -0.85577E-06  6433   0.469E-03    0.245E-02
RMM:   6    -0.112156330111E+04    0.51872E-06   -0.35325E-06  5359   0.313E-03    0.612E-03
RMM:   7    -0.112156330028E+04    0.83490E-06   -0.17056E-06  4045   0.247E-03    0.382E-03
RMM:   8    -0.112156329953E+04    0.75182E-06   -0.10453E-06  3194   0.232E-03
   3 F= -.11215633E+04 E0= -.11215633E+04  d E =-.926384E-02  mag=    40.0000
       N       E                     dE             d eps       ncg     rms          rms(c)
DAV:   1    -0.112156416951E+04   -0.86924E-03   -0.25889E+00 12368   0.189E+00    0.499E-01
RMM:   2    -0.112157086043E+04   -0.66909E-02   -0.67516E-02 12387   0.346E-01    0.325E-01
RMM:   3    -0.112157105615E+04   -0.19572E-03   -0.38595E-03 12753   0.110E-01    0.198E-01
RMM:   4    -0.112157084987E+04    0.20628E-03   -0.86792E-04 12652   0.341E-02    0.105E-01
RMM:   5    -0.112157080893E+04    0.40947E-04   -0.25524E-04  8433   0.193E-02    0.339E-02
RMM:   6    -0.112157081543E+04   -0.65045E-05   -0.51352E-05  7186   0.117E-02    0.228E-02
RMM:   7    -0.112157081868E+04   -0.32542E-05   -0.29297E-05  7058   0.726E-03    0.162E-02
RMM:   8    -0.112157082078E+04   -0.20935E-05   -0.16249E-05  6758   0.631E-03
   4 F= -.11215708E+04 E0= -.11215708E+04  d E =-.752125E-02  mag=    40.0000
       N       E                     dE             d eps       ncg     rms          rms(c)
DAV:   1    -0.112156105072E+04    0.97680E-02   -0.54392E+00 12296   0.274E+00    0.722E-01
RMM:   2    -0.112157515553E+04   -0.14105E-01   -0.14244E-01 12392   0.502E-01    0.472E-01
RMM:   3    -0.112157556780E+04   -0.41228E-03   -0.82126E-03 12945   0.160E-01    0.287E-01
RMM:   4    -0.112157514074E+04    0.42707E-03   -0.19381E-03 14730   0.494E-02    0.154E-01
RMM:   5    -0.112157505895E+04    0.81789E-04   -0.61633E-04 11756   0.243E-02    0.470E-02
RMM:   6    -0.112157506397E+04   -0.50274E-05   -0.70624E-05  7335   0.121E-02    0.254E-02
RMM:   7    -0.112157506874E+04   -0.47605E-05   -0.43552E-05  7242   0.855E-03    0.196E-02
RMM:   8    -0.112157507212E+04   -0.33859E-05   -0.27102E-05  7014   0.720E-03
   5 F= -.11215751E+04 E0= -.11215751E+04  d E =-.117726E-01  mag=    40.0000
       N       E                     dE             d eps       ncg     rms          rms(c)
DAV:   1    -0.112157326675E+04    0.18020E-02   -0.32960E+00 12336   0.213E+00    0.617E-01
RMM:   2    -0.112158158902E+04   -0.83223E-02   -0.86208E-02 12382   0.391E-01    0.418E-01
RMM:   3    -0.112158186249E+04   -0.27347E-03   -0.50941E-03 12911   0.126E-01    0.259E-01
RMM:   4    -0.112158160301E+04    0.25947E-03   -0.10816E-03 14173   0.382E-02    0.161E-01
RMM:   5    -0.112158150233E+04    0.10068E-03   -0.54969E-04 11138   0.244E-02    0.603E-02
RMM:   6    -0.112158150986E+04   -0.75322E-05   -0.73579E-05  7318   0.133E-02    0.530E-02
RMM:   7    -0.112158151557E+04   -0.57111E-05   -0.38103E-05  7179   0.825E-03    0.211E-02
RMM:   8    -0.112158152106E+04   -0.54891E-05   -0.23694E-05  7085   0.771E-03
   6 F= -.11215815E+04 E0= -.11215815E+04  d E =-.644894E-02  mag=    40.0000
       N       E                     dE             d eps       ncg     rms          rms(c)
DAV:   1    -0.112157775054E+04    0.37650E-02   -0.21792E+00 12448   0.173E+00    0.501E-01
RMM:   2    -0.112158325867E+04   -0.55081E-02   -0.56947E-02 12359   0.318E-01    0.339E-01
RMM:   3    -0.112158344681E+04   -0.18815E-03   -0.33903E-03 12801   0.102E-01    0.212E-01
RMM:   4    -0.112158327585E+04    0.17096E-03   -0.68923E-04 12333   0.311E-02    0.132E-01
RMM:   5    -0.112158321056E+04    0.65289E-04   -0.35651E-04  9459   0.220E-02    0.531E-02
RMM:   6    -0.112158321802E+04   -0.74581E-05   -0.66479E-05  7262   0.135E-02    0.517E-02
RMM:   7    -0.112158322311E+04   -0.50922E-05   -0.33762E-05  7134   0.810E-03    0.178E-02
RMM:   8    -0.112158322768E+04   -0.45721E-05   -0.19754E-05  7060   0.758E-03
   7 F= -.11215832E+04 E0= -.11215832E+04  d E =-.815556E-02  mag=    40.0000
       N       E                     dE             d eps       ncg     rms          rms(c)
DAV:   1    -0.112158046916E+04    0.27540E-02   -0.37451E+00 12288   0.228E+00    0.586E-01
RMM:   2    -0.112158942869E+04   -0.89595E-02   -0.95189E-02 12570   0.405E-01    0.351E-01
RMM:   3    -0.112158956450E+04   -0.13581E-03   -0.51974E-03 12957   0.130E-01    0.205E-01
RMM:   4    -0.112158933184E+04    0.23266E-03   -0.12292E-03 14298   0.399E-02    0.122E-01
RMM:   5    -0.112158924306E+04    0.88784E-04   -0.40103E-04  9946   0.218E-02    0.583E-02
RMM:   6    -0.112158924513E+04   -0.20700E-05   -0.77809E-05  7251   0.131E-02    0.443E-02
RMM:   7    -0.112158924820E+04   -0.30742E-05   -0.39040E-05  7122   0.895E-03    0.245E-02
RMM:   8    -0.112158924817E+04    0.33688E-07   -0.25373E-05  7047   0.778E-03
   8 F= -.11215892E+04 E0= -.11215892E+04  d E =-.602048E-02  mag=    40.0000
       N       E                     dE             d eps       ncg     rms          rms(c)
DAV:   1    -0.112157386505E+04    0.15383E-01   -0.80636E+00 12288   0.334E+00    0.859E-01
RMM:   2    -0.112159320598E+04   -0.19341E-01   -0.20505E-01 12578   0.594E-01    0.515E-01
RMM:   3    -0.112159350893E+04   -0.30295E-03   -0.11162E-02 13166   0.189E-01    0.301E-01
RMM:   4    -0.112159301491E+04    0.49402E-03   -0.26561E-03 15956   0.577E-02    0.181E-01
RMM:   5    -0.112159283083E+04    0.18408E-03   -0.91629E-04 13303   0.288E-02    0.801E-02
RMM:   6    -0.112159283136E+04   -0.52594E-06   -0.14092E-04  7788   0.152E-02    0.530E-02
RMM:   7    -0.112159283591E+04   -0.45477E-05   -0.61755E-05  7300   0.104E-02    0.290E-02
RMM:   8    -0.112159283639E+04   -0.48823E-06   -0.44671E-05  7183   0.921E-03
   9 F= -.11215928E+04 E0= -.11215928E+04  d E =-.960871E-02  mag=    40.0000
       N       E                     dE             d eps       ncg     rms          rms(c)
DAV:   1    -0.112158959291E+04    0.32430E-02   -0.36172E+00 12480   0.223E+00    0.505E-01
RMM:   2    -0.112159841455E+04   -0.88216E-02   -0.91524E-02 12609   0.397E-01    0.352E-01
RMM:   3    -0.112159857762E+04   -0.16307E-03   -0.48441E-03 13034   0.122E-01    0.216E-01
RMM:   4    -0.112159839713E+04    0.18049E-03   -0.92880E-04 13344   0.348E-02    0.136E-01
RMM:   5    -0.112159831620E+04    0.80929E-04   -0.57776E-04 10910   0.238E-02    0.506E-02
RMM:   6    -0.112159831837E+04   -0.21674E-05   -0.73569E-05  7262   0.134E-02    0.362E-02
RMM:   7    -0.112159832174E+04   -0.33711E-05   -0.38455E-05  7098   0.793E-03    0.161E-02
RMM:   8    -0.112159832225E+04   -0.51213E-06   -0.23626E-05  6974   0.751E-03
  10 F= -.11215983E+04 E0= -.11215983E+04  d E =-.548586E-02  mag=    40.0000
       N       E                     dE             d eps       ncg     rms          rms(c)
DAV:   1    -0.112158323554E+04    0.15086E-01   -0.75617E+00 12552   0.322E+00    0.729E-01
RMM:   2    -0.112160158469E+04   -0.18349E-01   -0.19042E-01 12567   0.572E-01    0.510E-01
RMM:   3    -0.112160194913E+04   -0.36445E-03   -0.10068E-02 13045   0.178E-01    0.312E-01
RMM:   4    -0.112160158468E+04    0.36445E-03   -0.20375E-03 15522   0.505E-02    0.198E-01
RMM:   5    -0.112160141413E+04    0.17055E-03   -0.12307E-03 12517   0.320E-02    0.712E-02
RMM:   6    -0.112160141266E+04    0.14753E-05   -0.12694E-04  7615   0.170E-02    0.492E-02
RMM:   7    -0.112160141731E+04   -0.46518E-05   -0.56073E-05  7269   0.954E-03    0.215E-02
RMM:   8    -0.112160141777E+04   -0.46028E-06   -0.39784E-05  7136   0.951E-03
  11 F= -.11216014E+04 E0= -.11216014E+04  d E =-.858138E-02  mag=    40.0000
       N       E                     dE             d eps       ncg     rms          rms(c)
DAV:   1    -0.112159436938E+04    0.70479E-02   -0.50500E+00 12352   0.262E+00    0.606E-01
RMM:   2    -0.112160643540E+04   -0.12066E-01   -0.12949E-01 12726   0.467E-01    0.393E-01
RMM:   3    -0.112160643076E+04    0.46366E-05   -0.66032E-03 13259   0.140E-01    0.226E-01
RMM:   4    -0.112160611334E+04    0.31742E-03   -0.15034E-03 14368   0.425E-02    0.132E-01
RMM:   5    -0.112160603627E+04    0.77070E-04   -0.52361E-04 11342   0.233E-02    0.460E-02
RMM:   6    -0.112160604581E+04   -0.95389E-05   -0.75171E-05  7292   0.126E-02    0.307E-02
RMM:   7    -0.112160605181E+04   -0.60048E-05   -0.41181E-05  7168   0.837E-03    0.193E-02
RMM:   8    -0.112160605745E+04   -0.56393E-05   -0.28800E-05  7070   0.771E-03
  12 F= -.11216061E+04 E0= -.11216061E+04  d E =-.463968E-02  mag=    40.0000
       N       E                     dE             d eps       ncg     rms          rms(c)
DAV:   1    -0.112159819133E+04    0.78605E-02   -0.39819E+00 12384   0.233E+00    0.537E-01
RMM:   2    -0.112160768821E+04   -0.94969E-02   -0.10189E-01 12721   0.414E-01    0.348E-01
RMM:   3    -0.112160768365E+04    0.45595E-05   -0.51813E-03 13203   0.124E-01    0.201E-01
RMM:   4    -0.112160743426E+04    0.24939E-03   -0.11729E-03 13819   0.380E-02    0.118E-01
RMM:   5    -0.112160737449E+04    0.59764E-04   -0.39984E-04 10193   0.213E-02    0.418E-02
RMM:   6    -0.112160738372E+04   -0.92264E-05   -0.65602E-05  7246   0.122E-02    0.287E-02
RMM:   7    -0.112160738919E+04   -0.54683E-05   -0.38175E-05  7142   0.806E-03    0.178E-02
RMM:   8    -0.112160739429E+04   -0.51054E-05   -0.24314E-05  7040   0.736E-03
  13 F= -.11216074E+04 E0= -.11216074E+04  d E =-.597652E-02  mag=    40.0000
       N       E                     dE             d eps       ncg     rms          rms(c)
DAV:   1    -0.112159834394E+04    0.90452E-02   -0.54666E+00 12288   0.271E+00    0.737E-01
RMM:   2    -0.112161205745E+04   -0.13714E-01   -0.14018E-01 12623   0.492E-01    0.464E-01
RMM:   3    -0.112161235444E+04   -0.29698E-03   -0.78789E-03 13450   0.148E-01    0.268E-01
RMM:   4    -0.112161198389E+04    0.37055E-03   -0.14976E-03 14366   0.433E-02    0.164E-01
RMM:   5    -0.112161183563E+04    0.14826E-03   -0.63359E-04 11497   0.257E-02    0.635E-02
RMM:   6    -0.112161183866E+04   -0.30249E-05   -0.86783E-05  7347   0.136E-02    0.442E-02
RMM:   7    -0.112161184158E+04   -0.29237E-05   -0.42404E-05  7182   0.875E-03    0.246E-02
RMM:   8    -0.112161183975E+04    0.18338E-05   -0.28314E-05  7096   0.784E-03
  14 F= -.11216118E+04 E0= -.11216118E+04  d E =-.444545E-02  mag=    40.0000
       N       E                     dE             d eps       ncg     rms          rms(c)
DAV:   1    -0.112160806009E+04    0.37815E-02   -0.18540E+00 12448   0.158E+00    0.429E-01
RMM:   2    -0.112161273195E+04   -0.46719E-02   -0.47795E-02 12636   0.286E-01    0.269E-01
RMM:   3    -0.112161282754E+04   -0.95588E-04   -0.26780E-03 12907   0.861E-02    0.156E-01
RMM:   4    -0.112161269907E+04    0.12847E-03   -0.46730E-04 10510   0.260E-02    0.950E-02
RMM:   5    -0.112161264900E+04    0.50070E-04   -0.21168E-04  7775   0.182E-02    0.423E-02
RMM:   6    -0.112161265158E+04   -0.25804E-05   -0.51685E-05  7134   0.120E-02    0.430E-02
RMM:   7    -0.112161265352E+04   -0.19437E-05   -0.27441E-05  7047   0.731E-03    0.174E-02
RMM:   8    -0.112161265232E+04    0.12049E-05   -0.16425E-05  7023   0.695E-03
  15 F= -.11216127E+04 E0= -.11216127E+04  d E =-.525802E-02  mag=    40.0000
       N       E                     dE             d eps       ncg     rms          rms(c)
DAV:   1    -0.112160005066E+04    0.12603E-01   -0.54282E+00 12408   0.265E+00    0.769E-01
RMM:   2    -0.112161624917E+04   -0.16199E-01   -0.13402E-01 12641   0.475E-01    0.449E-01
RMM:   3    -0.112161722542E+04   -0.97625E-03   -0.73416E-03 13174   0.140E-01    0.240E-01
RMM:   4    -0.112161690364E+04    0.32178E-03   -0.12689E-03 13300   0.398E-02    0.135E-01
RMM:   5    -0.112161682298E+04    0.80661E-04   -0.58736E-04 10834   0.243E-02    0.448E-02
RMM:   6    -0.112161682973E+04   -0.67521E-05   -0.69771E-05  7303   0.129E-02    0.248E-02
RMM:   7    -0.112161683255E+04   -0.28221E-05   -0.37370E-05  7146   0.745E-03    0.177E-02
RMM:   8    -0.112161683398E+04   -0.14239E-05   -0.24009E-05  6981   0.738E-03
  16 F= -.11216168E+04 E0= -.11216168E+04  d E =-.418166E-02  mag=    40.0000
       N       E                     dE             d eps       ncg     rms          rms(c)
DAV:   1    -0.112160958191E+04    0.72506E-02   -0.26535E+00 12456   0.185E+00    0.536E-01
RMM:   2    -0.112161751704E+04   -0.79351E-02   -0.65685E-02 12649   0.332E-01    0.314E-01
RMM:   3    -0.112161798497E+04   -0.46793E-03   -0.35990E-03 12972   0.978E-02    0.168E-01
RMM:   4    -0.112161782565E+04    0.15932E-03   -0.60970E-04 11414   0.283E-02    0.949E-02
RMM:   5    -0.112161778725E+04    0.38403E-04   -0.28634E-04  8768   0.187E-02    0.348E-02
RMM:   6    -0.112161779288E+04   -0.56348E-05   -0.47363E-05  7203   0.110E-02    0.211E-02
RMM:   7    -0.112161779501E+04   -0.21312E-05   -0.25684E-05  6982   0.662E-03    0.137E-02
RMM:   8    -0.112161779625E+04   -0.12385E-05   -0.16337E-05  6842   0.628E-03
  17 F= -.11216178E+04 E0= -.11216178E+04  d E =-.514393E-02  mag=    40.0000
       N       E                     dE             d eps       ncg     rms          rms(c)
DAV:   1    -0.112160301942E+04    0.14776E-01   -0.67187E+00 12288   0.293E+00    0.764E-01
RMM:   2    -0.112162060926E+04   -0.17590E-01   -0.16732E-01 12622   0.528E-01    0.485E-01
RMM:   3    -0.112162115555E+04   -0.54629E-03   -0.90355E-03 13130   0.156E-01    0.270E-01
RMM:   4    -0.112162068612E+04    0.46943E-03   -0.17072E-03 13644   0.454E-02    0.156E-01
RMM:   5    -0.112162057126E+04    0.11486E-03   -0.73170E-04 11541   0.268E-02    0.488E-02
RMM:   6    -0.112162057882E+04   -0.75644E-05   -0.78538E-05  7352   0.132E-02    0.297E-02
RMM:   7    -0.112162058290E+04   -0.40779E-05   -0.41415E-05  7202   0.785E-03    0.230E-02
RMM:   8    -0.112162058627E+04   -0.33696E-05   -0.27463E-05  7093   0.774E-03
  18 F= -.11216206E+04 E0= -.11216206E+04  d E =-.279002E-02  mag=    40.0000
       N       E                     dE             d eps       ncg     rms          rms(c)
DAV:   1    -0.112162056993E+04    0.12969E-04   -0.76301E-03 13760   0.990E-02    0.276E-02
RMM:   2    -0.112162058722E+04   -0.17295E-04   -0.16487E-04  7410   0.181E-02    0.193E-02
RMM:   3    -0.112162058989E+04   -0.26663E-05   -0.18178E-05  6579   0.828E-03    0.960E-03
RMM:   4    -0.112162058992E+04   -0.26237E-07   -0.49983E-06  4844   0.354E-03    0.694E-03
RMM:   5    -0.112162058978E+04    0.13421E-06   -0.19585E-06  3991   0.274E-03    0.380E-03
RMM:   6    -0.112162058977E+04    0.73633E-08   -0.95596E-07  2483   0.200E-03    0.115E-03
RMM:   7    -0.112162058980E+04   -0.21741E-07   -0.39242E-07  2014   0.194E-03    0.509E-04
RMM:   8    -0.112162058980E+04   -0.35070E-08   -0.13844E-07  1477   0.181E-03
  19 F= -.11216206E+04 E0= -.11216206E+04  d E =-.279355E-02  mag=    40.0000
       N       E                     dE             d eps       ncg     rms          rms(c)
DAV:   1    -0.112161594907E+04    0.46407E-02   -0.22945E+00 12384   0.171E+00    0.498E-01
RMM:   2    -0.112162214585E+04   -0.61968E-02   -0.58520E-02 12518   0.319E-01    0.350E-01
RMM:   3    -0.112162240289E+04   -0.25704E-03   -0.35057E-03 12904   0.928E-02    0.220E-01
RMM:   4    -0.112162223712E+04    0.16577E-03   -0.42909E-04 10115   0.246E-02    0.140E-01
RMM:   5    -0.112162214141E+04    0.95715E-04   -0.43826E-04  9563   0.220E-02    0.403E-02
RMM:   6    -0.112162214176E+04   -0.35533E-06   -0.45322E-05  7151   0.121E-02    0.370E-02
RMM:   7    -0.112162214335E+04   -0.15846E-05   -0.19801E-05  7027   0.561E-03    0.146E-02
RMM:   8    -0.112162214166E+04    0.16889E-05   -0.10304E-05  6792   0.531E-03
  20 F= -.11216221E+04 E0= -.11216221E+04  d E =-.155186E-02  mag=    40.0000
       N       E                     dE             d eps       ncg     rms          rms(c)
DAV:   1    -0.112162213868E+04    0.46647E-05   -0.38777E-04 11728   0.235E-02    0.103E-02
RMM:   2    -0.112162213983E+04   -0.11452E-05   -0.12238E-05  6420   0.570E-03    0.148E-02
RMM:   3    -0.112162214013E+04   -0.29764E-06   -0.26816E-06  4524   0.292E-03    0.287E-03
RMM:   4    -0.112162214011E+04    0.16837E-07   -0.52164E-07  2318   0.198E-03    0.193E-03
RMM:   5    -0.112162214007E+04    0.33702E-07   -0.24042E-07  1906   0.187E-03    0.134E-03
RMM:   6    -0.112162214006E+04    0.19252E-07   -0.36469E-08  1440   0.175E-03    0.486E-04
RMM:   7    -0.112162214005E+04    0.41473E-08   -0.12988E-08  1270   0.175E-03    0.236E-04
RMM:   8    -0.112162214005E+04   -0.25029E-08   -0.29576E-09  1107   0.174E-03
  21 F= -.11216221E+04 E0= -.11216221E+04  d E =-.155025E-02  mag=    40.0000
       N       E                     dE             d eps       ncg     rms          rms(c)
DAV:   1    -0.112162036370E+04    0.17764E-02   -0.97137E-01 12464   0.114E+00    0.320E-01
RMM:   2    -0.112162292338E+04   -0.25597E-02   -0.24954E-02 12534   0.209E-01    0.199E-01
RMM:   3    -0.112162301154E+04   -0.88163E-04   -0.13970E-03 12176   0.633E-02    0.116E-01
RMM:   4    -0.112162292704E+04    0.84503E-04   -0.23785E-04  8231   0.194E-02    0.647E-02
RMM:   5    -0.112162290188E+04    0.25161E-04   -0.11370E-04  7231   0.137E-02    0.229E-02
RMM:   6    -0.112162290562E+04   -0.37395E-05   -0.28086E-05  7053   0.887E-03    0.240E-02
RMM:   7    -0.112162290723E+04   -0.16102E-05   -0.14515E-05  6763   0.518E-03    0.111E-02
RMM:   8    -0.112162290840E+04   -0.11690E-05   -0.81348E-06  6406   0.488E-03
  22 F= -.11216229E+04 E0= -.11216229E+04  d E =-.768343E-03  mag=    40.0000
       N       E                     dE             d eps       ncg     rms          rms(c)
DAV:   1    -0.112162290890E+04   -0.16754E-05   -0.23322E-04 10848   0.184E-02    0.731E-03
RMM:   2    -0.112162290988E+04   -0.97562E-06   -0.99247E-06  6234   0.551E-03    0.953E-03
RMM:   3    -0.112162291019E+04   -0.30830E-06   -0.24265E-06  3799   0.264E-03    0.292E-03
RMM:   4    -0.112162291022E+04   -0.31592E-07   -0.35636E-07  2142   0.201E-03    0.217E-03
RMM:   5    -0.112162291023E+04   -0.11147E-07   -0.12248E-07  1703   0.191E-03    0.784E-04
RMM:   6    -0.112162291024E+04   -0.78580E-08   -0.11313E-08  1336   0.184E-03    0.312E-04
RMM:   7    -0.112162291024E+04   -0.68394E-09   -0.13218E-09   998   0.184E-03    0.170E-04
RMM:   8    -0.112162291024E+04    0.49477E-09   -0.30912E-09   917   0.184E-03
  23 F= -.11216229E+04 E0= -.11216229E+04  d E =-.770184E-03  mag=    40.0000
       N       E                     dE             d eps       ncg     rms          rms(c)
DAV:   1    -0.112162173227E+04    0.11780E-02   -0.67397E-01 12688   0.959E-01    0.286E-01
RMM:   2    -0.112162363590E+04   -0.19036E-02   -0.17331E-02 12590   0.174E-01    0.175E-01
RMM:   3    -0.112162372755E+04   -0.91654E-04   -0.93646E-04 11328   0.526E-02    0.103E-01
RMM:   4    -0.112162368318E+04    0.44371E-04   -0.14537E-04  7427   0.164E-02    0.607E-02
RMM:   5    -0.112162367084E+04    0.12335E-04   -0.84990E-05  7097   0.118E-02    0.175E-02
RMM:   6    -0.112162367440E+04   -0.35523E-05   -0.22044E-05  6993   0.766E-03    0.135E-02
RMM:   7    -0.112162367582E+04   -0.14210E-05   -0.11440E-05  6526   0.452E-03    0.760E-03
RMM:   8    -0.112162367679E+04   -0.97317E-06   -0.61081E-06  5769   0.427E-03
  24 F= -.11216237E+04 E0= -.11216237E+04  d E =-.766552E-03  mag=    40.0000
