<?xml version="1.0" encoding="ISO-8859-1"?>
<modeling>
 <generator>
  <i name="program" type="string">vasp </i>
  <i name="version" type="string">5.4.1  </i>
  <i name="subversion" type="string">05Feb16 (build Jan 25 2017 20:16:33) complex                          parallel </i>
  <i name="platform" type="string">BWXE6 </i>
  <i name="date" type="string">2019 08 11 </i>
  <i name="time" type="string">11:32:22 </i>
 </generator>
 <incar>
  <i type="string" name="SYSTEM"> STF</i>
  <i type="string" name="PREC">normal</i>
  <i type="string" name="ALGO"> Fast</i>
  <i type="int" name="ISPIN">     2</i>
  <i type="int" name="NELM">    40</i>
  <i type="int" name="NELMIN">     8</i>
  <i type="int" name="IBRION">     2</i>
  <i name="EDIFF">      0.00010000</i>
  <i name="EDIFFG">     -0.03000000</i>
  <i type="int" name="NSW">    30</i>
  <i type="int" name="ISIF">     3</i>
  <i name="ENCUT">    520.00000000</i>
  <i type="int" name="NBANDS">   768</i>
  <v name="MAGMOM">      0.60000000      0.60000000      0.60000000      0.60000000      0.60000000      0.60000000      0.60000000      0.60000000      0.60000000      0.60000000      0.60000000      0.60000000      0.60000000      0.60000000      0.60000000      0.60000000      0.60000000      0.60000000      0.60000000      0.60000000
      0.60000000      0.60000000      0.60000000      0.60000000      0.60000000      0.60000000      0.60000000      0.60000000      0.60000000      0.60000000      0.60000000      0.60000000      0.60000000      0.60000000      0.60000000      0.60000000      0.60000000      0.60000000      0.60000000      0.60000000
      0.60000000      0.60000000      0.60000000      0.60000000      0.60000000      0.60000000      0.60000000      0.60000000      0.60000000      0.60000000      0.60000000      0.60000000      0.60000000      0.60000000      0.60000000      0.60000000      5.00000000      5.00000000      5.00000000      5.00000000
      5.00000000      5.00000000      5.00000000      5.00000000      0.60000000      0.60000000      0.60000000      0.60000000      0.60000000      0.60000000      0.60000000      0.60000000      0.60000000      0.60000000      0.60000000      0.60000000      0.60000000      0.60000000      0.60000000      0.60000000
      0.60000000      0.60000000      0.60000000      0.60000000      0.60000000      0.60000000      0.60000000      0.60000000      0.60000000      0.60000000      0.60000000      0.60000000      0.60000000      0.60000000      0.60000000      0.60000000      0.60000000      0.60000000      0.60000000      0.60000000
      0.60000000      0.60000000      0.60000000      0.60000000      0.60000000      0.60000000      0.60000000      0.60000000      0.60000000      0.60000000      0.60000000      0.60000000      0.60000000      0.60000000      0.60000000      0.60000000      0.60000000      0.60000000      0.60000000      0.60000000
      0.60000000      0.60000000      0.60000000      0.60000000      0.60000000      0.60000000      0.60000000      0.60000000      0.60000000      0.60000000      0.60000000      0.60000000      0.60000000      0.60000000      0.60000000      0.60000000      0.60000000      0.60000000      0.60000000      0.60000000
      0.60000000      0.60000000      0.60000000      0.60000000      0.60000000      0.60000000      0.60000000      0.60000000      0.60000000      0.60000000      0.60000000      0.60000000      0.60000000      0.60000000      0.60000000      0.60000000</v>
  <i type="string" name="LREAL"> Auto</i>
  <i type="int" name="ISMEAR">     0</i>
  <i name="SIGMA">      0.05000000</i>
  <i type="int" name="LMAXMIX">     4</i>
  <v type="int" name="KPOINT_BSE">    -1     0     0     0</v>
  <i type="int" name="NELM">    40</i>
  <i type="logical" name="LDAU"> T  </i>
  <v type="int" name="LDAUTYPE">     2</v>
  <v type="int" name="LDAUL">     0     2     2     0</v>
  <v name="LDAUU">      0.00000000      3.00000000      5.00000000      0.00000000</v>
  <v name="LDAUJ">      0.00000000      0.00000000      0.00000000      0.00000000</v>
  <i type="int" name="LDAUPRINT">     1</i>
 </incar>
 <kpoints>
  <generation param="Monkhorst-Pack">
   <v type="int" name="divisions">       2        2        2 </v>
   <v name="usershift">      0.00000000       0.00000000       0.00000000 </v>
   <v name="genvec1">      0.50000000       0.00000000       0.00000000 </v>
   <v name="genvec2">     -0.00000000       0.50000000       0.00000000 </v>
   <v name="genvec3">      0.00000000       0.00000000       0.50000000 </v>
   <v name="shift">      0.50000000       0.50000000       0.50000000 </v>
  </generation>
  <varray name="kpointlist" >
   <v>       0.25000000       0.25000000       0.25000000 </v>
   <v>      -0.25000000       0.25000000       0.25000000 </v>
   <v>       0.25000000      -0.25000000       0.25000000 </v>
   <v>      -0.25000000      -0.25000000       0.25000000 </v>
  </varray>
  <varray name="weights" >
   <v>       0.25000000 </v>
   <v>       0.25000000 </v>
   <v>       0.25000000 </v>
   <v>       0.25000000 </v>
  </varray>
 </kpoints>
 <parameters>
  <separator name="general" >
   <i type="string" name="SYSTEM">STF</i>
   <i type="logical" name="LCOMPAT"> F  </i>
  </separator>
  <separator name="electronic" >
   <i type="string" name="PREC">normal</i>
   <i name="ENMAX">    520.00000000</i>
   <i name="ENAUG">    605.39200000</i>
   <i name="EDIFF">      0.00010000</i>
   <i type="int" name="IALGO">    68</i>
   <i type="int" name="IWAVPR">    11</i>
   <i type="int" name="NBANDS">   768</i>
   <i name="NELECT">   1032.00000000</i>
   <i type="int" name="TURBO">     0</i>
   <i type="int" name="IRESTART">     0</i>
   <i type="int" name="NREBOOT">     0</i>
   <i type="int" name="NMIN">     0</i>
   <i name="EREF">      0.00000000</i>
   <separator name="electronic smearing" >
    <i type="int" name="ISMEAR">     0</i>
    <i name="SIGMA">      0.05000000</i>
    <i name="KSPACING">      0.50000000</i>
    <i type="logical" name="KGAMMA"> T  </i>
   </separator>
   <separator name="electronic projectors" >
    <i type="logical" name="LREAL"> T  </i>
    <v name="ROPT">     -0.00050000     -0.00050000     -0.00050000     -0.00050000</v>
    <i type="int" name="LMAXPAW">  -100</i>
    <i type="int" name="LMAXMIX">     4</i>
    <i type="logical" name="NLSPLINE"> F  </i>
   </separator>
   <separator name="electronic startup" >
    <i type="int" name="ISTART">     1</i>
    <i type="int" name="ICHARG">     0</i>
    <i type="int" name="INIWAV">     1</i>
   </separator>
   <separator name="electronic spin" >
    <i type="int" name="ISPIN">     2</i>
    <i type="logical" name="LNONCOLLINEAR"> F  </i>
    <v name="MAGMOM">      0.60000000      0.60000000      0.60000000      0.60000000      0.60000000      0.60000000      0.60000000      0.60000000      0.60000000      0.60000000      0.60000000      0.60000000      0.60000000      0.60000000      0.60000000      0.60000000      0.60000000      0.60000000      0.60000000      0.60000000
      0.60000000      0.60000000      0.60000000      0.60000000      0.60000000      0.60000000      0.60000000      0.60000000      0.60000000      0.60000000      0.60000000      0.60000000      0.60000000      0.60000000      0.60000000      0.60000000      0.60000000      0.60000000      0.60000000      0.60000000
      0.60000000      0.60000000      0.60000000      0.60000000      0.60000000      0.60000000      0.60000000      0.60000000      0.60000000      0.60000000      0.60000000      0.60000000      0.60000000      0.60000000      0.60000000      0.60000000      5.00000000      5.00000000      5.00000000      5.00000000
      5.00000000      5.00000000      5.00000000      5.00000000      0.60000000      0.60000000      0.60000000      0.60000000      0.60000000      0.60000000      0.60000000      0.60000000      0.60000000      0.60000000      0.60000000      0.60000000      0.60000000      0.60000000      0.60000000      0.60000000
      0.60000000      0.60000000      0.60000000      0.60000000      0.60000000      0.60000000      0.60000000      0.60000000      0.60000000      0.60000000      0.60000000      0.60000000      0.60000000      0.60000000      0.60000000      0.60000000      0.60000000      0.60000000      0.60000000      0.60000000
      0.60000000      0.60000000      0.60000000      0.60000000      0.60000000      0.60000000      0.60000000      0.60000000      0.60000000      0.60000000      0.60000000      0.60000000      0.60000000      0.60000000      0.60000000      0.60000000      0.60000000      0.60000000      0.60000000      0.60000000
      0.60000000      0.60000000      0.60000000      0.60000000      0.60000000      0.60000000      0.60000000      0.60000000      0.60000000      0.60000000      0.60000000      0.60000000      0.60000000      0.60000000      0.60000000      0.60000000      0.60000000      0.60000000      0.60000000      0.60000000
      0.60000000      0.60000000      0.60000000      0.60000000      0.60000000      0.60000000      0.60000000      0.60000000      0.60000000      0.60000000      0.60000000      0.60000000      0.60000000      0.60000000      0.60000000      0.60000000</v>
    <i name="NUPDOWN">     -1.00000000</i>
    <i type="logical" name="LSORBIT"> F  </i>
    <v name="SAXIS">      0.00000000      0.00000000      1.00000000</v>
    <i type="logical" name="LSPIRAL"> F  </i>
    <v name="QSPIRAL">      0.00000000      0.00000000      0.00000000</v>
    <i type="logical" name="LZEROZ"> F  </i>
   </separator>
   <separator name="electronic exchange-correlation" >
    <i type="logical" name="LASPH"> F  </i>
    <i type="logical" name="LMETAGGA"> F  </i>
   </separator>
   <separator name="electronic convergence" >
    <i type="int" name="NELM">    40</i>
    <i type="int" name="NELMDL">     0</i>
    <i type="int" name="NELMIN">     8</i>
    <i name="ENINI">    520.00000000</i>
    <separator name="electronic convergence detail" >
     <i type="logical" name="LDIAG"> T  </i>
     <i type="logical" name="LSUBROT"> F  </i>
     <i name="WEIMIN">      0.00100000</i>
     <i name="EBREAK">      0.00000003</i>
     <i name="DEPER">      0.30000000</i>
     <i type="int" name="NRMM">     4</i>
     <i name="TIME">      0.40000000</i>
    </separator>
   </separator>
   <separator name="electronic mixer" >
    <i name="AMIX">      0.40000000</i>
    <i name="BMIX">      1.00000000</i>
    <i name="AMIN">      0.10000000</i>
    <i name="AMIX_MAG">      1.60000000</i>
    <i name="BMIX_MAG">      1.00000000</i>
    <separator name="electronic mixer details" >
     <i type="int" name="IMIX">     4</i>
     <i type="logical" name="MIXFIRST"> F  </i>
     <i type="int" name="MAXMIX">   -45</i>
     <i name="WC">    100.00000000</i>
     <i type="int" name="INIMIX">     1</i>
     <i type="int" name="MIXPRE">     1</i>
     <i type="int" name="MREMOVE">     5</i>
    </separator>
   </separator>
   <separator name="electronic dipolcorrection" >
    <i type="logical" name="LDIPOL"> F  </i>
    <i type="logical" name="LMONO"> F  </i>
    <i type="int" name="IDIPOL">     0</i>
    <i name="EPSILON">      1.00000000</i>
    <v name="DIPOL">   -100.00000000   -100.00000000   -100.00000000</v>
    <i name="EFIELD">      0.00000000</i>
   </separator>
  </separator>
  <separator name="grids" >
   <i type="int" name="NGX">    64</i>
   <i type="int" name="NGY">    64</i>
   <i type="int" name="NGZ">    90</i>
   <i type="int" name="NGXF">   128</i>
   <i type="int" name="NGYF">   128</i>
   <i type="int" name="NGZF">   180</i>
   <i type="logical" name="ADDGRID"> F  </i>
  </separator>
  <separator name="ionic" >
   <i type="int" name="NSW">    30</i>
   <i type="int" name="IBRION">     2</i>
   <i type="int" name="ISIF">     3</i>
   <i name="PSTRESS">      0.00000000</i>
   <i name="EDIFFG">     -0.03000000</i>
   <i type="int" name="NFREE">     1</i>
   <i name="POTIM">      0.50000000</i>
   <i name="SMASS">     -3.00000000</i>
   <i name="SCALEE">      1.00000000</i>
  </separator>
  <separator name="ionic md" >
   <i name="TEBEG">      0.00010000</i>
   <i name="TEEND">      0.00010000</i>
   <i type="int" name="NBLOCK">     1</i>
   <i type="int" name="KBLOCK">    30</i>
   <i type="int" name="NPACO">   256</i>
   <i name="APACO">     16.00000000</i>
  </separator>
  <separator name="symmetry" >
   <i type="int" name="ISYM">     2</i>
   <i name="SYMPREC">      0.00001000</i>
  </separator>
  <separator name="dos" >
   <i type="logical" name="LORBIT"> F  </i>
   <v name="RWIGS">     -1.00000000     -1.00000000     -1.00000000     -1.00000000</v>
   <i type="int" name="NEDOS">   301</i>
   <i name="EMIN">     10.00000000</i>
   <i name="EMAX">    -10.00000000</i>
   <i name="EFERMI">      0.00000000</i>
  </separator>
  <separator name="writing" >
   <i type="int" name="NWRITE">     2</i>
   <i type="logical" name="LWAVE"> T  </i>
   <i type="logical" name="LCHARG"> T  </i>
   <i type="logical" name="LPARD"> F  </i>
   <i type="logical" name="LVTOT"> F  </i>
   <i type="logical" name="LVHAR"> F  </i>
   <i type="logical" name="LELF"> F  </i>
   <i type="logical" name="LOPTICS"> F  </i>
   <v name="STM">      0.00000000      0.00000000      0.00000000      0.00000000      0.00000000      0.00000000      0.00000000</v>
  </separator>
  <separator name="performance" >
   <i type="int" name="NPAR">     2</i>
   <i type="int" name="NSIM">     4</i>
   <i type="int" name="NBLK">    -1</i>
   <i type="logical" name="LPLANE"> T  </i>
   <i type="logical" name="LSCALAPACK"> T  </i>
   <i type="logical" name="LSCAAWARE"> F  </i>
   <i type="logical" name="LSCALU"> F  </i>
   <i type="logical" name="LASYNC"> F  </i>
   <i type="logical" name="LORBITALREAL"> F  </i>
  </separator>
  <separator name="miscellaneous" >
   <i type="int" name="IDIOT">     3</i>
   <i type="logical" name="LMUSIC"> F  </i>
   <v name="POMASS">     87.62000000     47.88000000     55.84700000     16.00000000</v>
   <v name="DARWINR">      0.00000000      0.00000000      0.00000000      0.00000000</v>
   <v name="DARWINV">      1.00000000      1.00000000      1.00000000      1.00000000</v>
   <i type="logical" name="LCORR"> T  </i>
  </separator>
  <i type="logical" name="GGA_COMPAT"> T  </i>
  <i type="logical" name="LBERRY"> F  </i>
  <i type="int" name="ICORELEVEL">     0</i>
  <i type="logical" name="LDAU"> T  </i>
  <v type="int" name="LDAUTYPE">     2</v>
  <v type="int" name="LDAUL">     0</v>
  <v name="LDAUU">      0.00000000</v>
  <v name="LDAUJ">      0.00000000</v>
  <i type="int" name="LDAUPRINT">     1</i>
  <i type="int" name="I_CONSTRAINED_M">     0</i>
  <separator name="electronic exchange-correlation" >
   <i type="string" name="GGA">--</i>
   <i type="int" name="VOSKOWN">     0</i>
   <i type="logical" name="LHFCALC"> F  </i>
   <i type="string" name="PRECFOCK"></i>
   <i type="logical" name="LSYMGRAD"> F  </i>
   <i type="logical" name="LHFONE"> F  </i>
   <i type="logical" name="LRHFCALC"> F  </i>
   <i type="logical" name="LTHOMAS"> F  </i>
   <i type="logical" name="LMODELHF"> F  </i>
   <i name="ENCUT4O">     -1.00000000</i>
   <i type="int" name="EXXOEP">     0</i>
   <i type="int" name="FOURORBIT">     0</i>
   <i name="AEXX">      0.00000000</i>
   <i name="HFALPHA">      0.00000000</i>
   <i name="MCALPHA">      0.00000000</i>
   <i name="ALDAX">      1.00000000</i>
   <i name="AGGAX">      1.00000000</i>
   <i name="ALDAC">      1.00000000</i>
   <i name="AGGAC">      1.00000000</i>
   <i type="int" name="NKREDX">     1</i>
   <i type="int" name="NKREDY">     1</i>
   <i type="int" name="NKREDZ">     1</i>
   <i type="logical" name="SHIFTRED"> F  </i>
   <i type="logical" name="ODDONLY"> F  </i>
   <i type="logical" name="EVENONLY"> F  </i>
   <i type="int" name="LMAXFOCK">     0</i>
   <i type="int" name="NMAXFOCKAE">     0</i>
   <i type="logical" name="LFOCKAEDFT"> F  </i>
   <i name="HFSCREEN">      0.00000000</i>
   <i name="HFSCREENC">      0.00000000</i>
   <i type="int" name="NBANDSGWLOW">     0</i>
  </separator>
  <separator name="vdW DFT" >
   <i type="logical" name="LUSE_VDW"> F  </i>
   <i name="Zab_VDW">     -0.84910000</i>
   <i name="PARAM1">      0.12340000</i>
   <i name="PARAM2">      1.00000000</i>
   <i name="PARAM3">      0.00000000</i>
  </separator>
  <separator name="model GW" >
   <i type="int" name="MODEL_GW">     0</i>
   <i name="MODEL_EPS0">      7.71648341</i>
   <i name="MODEL_ALPHA">      1.00000000</i>
  </separator>
  <separator name="linear response parameters" >
   <i type="logical" name="LEPSILON"> F  </i>
   <i type="logical" name="LRPA"> F  </i>
   <i type="logical" name="LNABLA"> F  </i>
   <i type="logical" name="LVEL"> F  </i>
   <i type="int" name="KINTER">     0</i>
   <i name="CSHIFT">      0.10000000</i>
   <i name="OMEGAMAX">     -1.00000000</i>
   <i name="DEG_THRESHOLD">      0.00200000</i>
  </separator>
  <separator name="orbital magnetization" >
   <i type="logical" name="NUCIND"> F  </i>
   <v name="MAGPOS">      0.00000000      0.00000000      0.00000000</v>
   <i type="logical" name="LNICSALL"> T  </i>
   <i type="logical" name="ORBITALMAG"> F  </i>
   <i type="logical" name="LMAGBLOCH"> F  </i>
   <i type="logical" name="LCHIMAG"> F  </i>
   <i type="logical" name="LGAUGE"> T  </i>
   <i type="int" name="MAGATOM">     0</i>
   <v name="MAGDIPOL">      0.00000000      0.00000000      0.00000000</v>
   <v name="AVECCONST">      0.00000000      0.00000000      0.00000000</v>
  </separator>
  <separator name="response functions" >
   <i type="logical" name="LADDER"> F  </i>
   <i type="logical" name="LFXC"> F  </i>
   <i type="logical" name="LHARTREE"> T  </i>
   <i type="int" name="IBSE">     0</i>
   <v type="int" name="KPOINT">    -1     0     0     0</v>
   <i type="logical" name="LTCTE"> F  </i>
   <i type="logical" name="LTETE"> F  </i>
   <i type="logical" name="LTRIPLET"> F  </i>
   <i type="logical" name="LFXCEPS"> F  </i>
   <i type="logical" name="LFXHEG"> F  </i>
   <i type="int" name="NATURALO">     0</i>
   <i type="logical" name="L2ORDER"> F  </i>
   <i type="logical" name="LUSEW"> F  </i>
   <i name="ENCUTGW">     -2.00000000</i>
   <i name="ENCUTGWSOFT">     -2.00000000</i>
   <i name="ENCUTLF">     -1.00000000</i>
   <i type="int" name="LMAXMP2">    -1</i>
   <i name="SCISSOR">      0.00000000</i>
   <i type="int" name="NOMEGA">     0</i>
   <i type="int" name="NOMEGAR">     0</i>
   <i type="int" name="NBANDSGW">    -1</i>
   <i type="int" name="NBANDSO">    -1</i>
   <i type="int" name="NBANDSV">    -1</i>
   <i type="int" name="NELM">    40</i>
   <i type="int" name="NELMHF">     1</i>
   <i type="int" name="DIM">     3</i>
   <i type="int" name="ANTIRES">     0</i>
   <i name="OMEGAMAX">    -30.00000000</i>
   <i name="OMEGAMIN">    -30.00000000</i>
   <i name="OMEGATL">   -200.00000000</i>
   <i type="int" name="OMEGAGRID">     0</i>
   <i name="CSHIFT">     -0.10000000</i>
   <i type="logical" name="SELFENERGY"> F  </i>
   <i type="logical" name="LSPECTRAL"> F  </i>
   <i type="logical" name="LSPECTRALGW"> F  </i>
   <i type="logical" name="LSINGLES"> F  </i>
   <i type="logical" name="LFERMIGW"> F  </i>
   <i type="logical" name="ODDONLYGW"> F  </i>
   <i type="logical" name="EVENONLYGW"> F  </i>
   <i type="int" name="NKREDLFX">     1</i>
   <i type="int" name="NKREDLFY">     1</i>
   <i type="int" name="NKREDLFZ">     1</i>
   <i type="int" name="MAXMEM">  1800</i>
   <i type="int" name="TELESCOPE">     0</i>
   <i type="int" name="TAUPAR">     1</i>
   <i type="int" name="OMEGAPAR">    -1</i>
   <i name="LAMBDA">      1.00000000</i>
  </separator>
  <separator name="External order field" >
   <i name="OFIELD_KAPPA">      0.00000000</i>
   <v name="OFIELD_K">      0.00000000      0.00000000      0.00000000</v>
   <i name="OFIELD_Q6_NEAR">      0.00000000</i>
   <i name="OFIELD_Q6_FAR">      0.00000000</i>
   <i name="OFIELD_A">      0.00000000</i>
  </separator>
 </parameters>
 <atominfo>
  <atoms>     156 </atoms>
  <types>       4 </types>
  <array name="atoms" >
   <dimension dim="1">ion</dimension>
   <field type="string">element</field>
   <field type="int">atomtype</field>
   <set>
    <rc><c>Sr</c><c>   1</c></rc>
    <rc><c>Sr</c><c>   1</c></rc>
    <rc><c>Sr</c><c>   1</c></rc>
    <rc><c>Sr</c><c>   1</c></rc>
    <rc><c>Sr</c><c>   1</c></rc>
    <rc><c>Sr</c><c>   1</c></rc>
    <rc><c>Sr</c><c>   1</c></rc>
    <rc><c>Sr</c><c>   1</c></rc>
    <rc><c>Sr</c><c>   1</c></rc>
    <rc><c>Sr</c><c>   1</c></rc>
    <rc><c>Sr</c><c>   1</c></rc>
    <rc><c>Sr</c><c>   1</c></rc>
    <rc><c>Sr</c><c>   1</c></rc>
    <rc><c>Sr</c><c>   1</c></rc>
    <rc><c>Sr</c><c>   1</c></rc>
    <rc><c>Sr</c><c>   1</c></rc>
    <rc><c>Sr</c><c>   1</c></rc>
    <rc><c>Sr</c><c>   1</c></rc>
    <rc><c>Sr</c><c>   1</c></rc>
    <rc><c>Sr</c><c>   1</c></rc>
    <rc><c>Sr</c><c>   1</c></rc>
    <rc><c>Sr</c><c>   1</c></rc>
    <rc><c>Sr</c><c>   1</c></rc>
    <rc><c>Sr</c><c>   1</c></rc>
    <rc><c>Sr</c><c>   1</c></rc>
    <rc><c>Sr</c><c>   1</c></rc>
    <rc><c>Sr</c><c>   1</c></rc>
    <rc><c>Sr</c><c>   1</c></rc>
    <rc><c>Sr</c><c>   1</c></rc>
    <rc><c>Sr</c><c>   1</c></rc>
    <rc><c>Sr</c><c>   1</c></rc>
    <rc><c>Sr</c><c>   1</c></rc>
    <rc><c>Ti</c><c>   2</c></rc>
    <rc><c>Ti</c><c>   2</c></rc>
    <rc><c>Ti</c><c>   2</c></rc>
    <rc><c>Ti</c><c>   2</c></rc>
    <rc><c>Ti</c><c>   2</c></rc>
    <rc><c>Ti</c><c>   2</c></rc>
    <rc><c>Ti</c><c>   2</c></rc>
    <rc><c>Ti</c><c>   2</c></rc>
    <rc><c>Ti</c><c>   2</c></rc>
    <rc><c>Ti</c><c>   2</c></rc>
    <rc><c>Ti</c><c>   2</c></rc>
    <rc><c>Ti</c><c>   2</c></rc>
    <rc><c>Ti</c><c>   2</c></rc>
    <rc><c>Ti</c><c>   2</c></rc>
    <rc><c>Ti</c><c>   2</c></rc>
    <rc><c>Ti</c><c>   2</c></rc>
    <rc><c>Ti</c><c>   2</c></rc>
    <rc><c>Ti</c><c>   2</c></rc>
    <rc><c>Ti</c><c>   2</c></rc>
    <rc><c>Ti</c><c>   2</c></rc>
    <rc><c>Ti</c><c>   2</c></rc>
    <rc><c>Ti</c><c>   2</c></rc>
    <rc><c>Ti</c><c>   2</c></rc>
    <rc><c>Ti</c><c>   2</c></rc>
    <rc><c>Fe</c><c>   3</c></rc>
    <rc><c>Fe</c><c>   3</c></rc>
    <rc><c>Fe</c><c>   3</c></rc>
    <rc><c>Fe</c><c>   3</c></rc>
    <rc><c>Fe</c><c>   3</c></rc>
    <rc><c>Fe</c><c>   3</c></rc>
    <rc><c>Fe</c><c>   3</c></rc>
    <rc><c>Fe</c><c>   3</c></rc>
    <rc><c>O </c><c>   4</c></rc>
    <rc><c>O </c><c>   4</c></rc>
    <rc><c>O </c><c>   4</c></rc>
    <rc><c>O </c><c>   4</c></rc>
    <rc><c>O </c><c>   4</c></rc>
    <rc><c>O </c><c>   4</c></rc>
    <rc><c>O </c><c>   4</c></rc>
    <rc><c>O </c><c>   4</c></rc>
    <rc><c>O </c><c>   4</c></rc>
    <rc><c>O </c><c>   4</c></rc>
    <rc><c>O </c><c>   4</c></rc>
    <rc><c>O </c><c>   4</c></rc>
    <rc><c>O </c><c>   4</c></rc>
    <rc><c>O </c><c>   4</c></rc>
    <rc><c>O </c><c>   4</c></rc>
    <rc><c>O </c><c>   4</c></rc>
    <rc><c>O </c><c>   4</c></rc>
    <rc><c>O </c><c>   4</c></rc>
    <rc><c>O </c><c>   4</c></rc>
    <rc><c>O </c><c>   4</c></rc>
    <rc><c>O </c><c>   4</c></rc>
    <rc><c>O </c><c>   4</c></rc>
    <rc><c>O </c><c>   4</c></rc>
    <rc><c>O </c><c>   4</c></rc>
    <rc><c>O </c><c>   4</c></rc>
    <rc><c>O </c><c>   4</c></rc>
    <rc><c>O </c><c>   4</c></rc>
    <rc><c>O </c><c>   4</c></rc>
    <rc><c>O </c><c>   4</c></rc>
    <rc><c>O </c><c>   4</c></rc>
    <rc><c>O </c><c>   4</c></rc>
    <rc><c>O </c><c>   4</c></rc>
    <rc><c>O </c><c>   4</c></rc>
    <rc><c>O </c><c>   4</c></rc>
    <rc><c>O </c><c>   4</c></rc>
    <rc><c>O </c><c>   4</c></rc>
    <rc><c>O </c><c>   4</c></rc>
    <rc><c>O </c><c>   4</c></rc>
    <rc><c>O </c><c>   4</c></rc>
    <rc><c>O </c><c>   4</c></rc>
    <rc><c>O </c><c>   4</c></rc>
    <rc><c>O </c><c>   4</c></rc>
    <rc><c>O </c><c>   4</c></rc>
    <rc><c>O </c><c>   4</c></rc>
    <rc><c>O </c><c>   4</c></rc>
    <rc><c>O </c><c>   4</c></rc>
    <rc><c>O </c><c>   4</c></rc>
    <rc><c>O </c><c>   4</c></rc>
    <rc><c>O </c><c>   4</c></rc>
    <rc><c>O </c><c>   4</c></rc>
    <rc><c>O </c><c>   4</c></rc>
    <rc><c>O </c><c>   4</c></rc>
    <rc><c>O </c><c>   4</c></rc>
    <rc><c>O </c><c>   4</c></rc>
    <rc><c>O </c><c>   4</c></rc>
    <rc><c>O </c><c>   4</c></rc>
    <rc><c>O </c><c>   4</c></rc>
    <rc><c>O </c><c>   4</c></rc>
    <rc><c>O </c><c>   4</c></rc>
    <rc><c>O </c><c>   4</c></rc>
    <rc><c>O </c><c>   4</c></rc>
    <rc><c>O </c><c>   4</c></rc>
    <rc><c>O </c><c>   4</c></rc>
    <rc><c>O </c><c>   4</c></rc>
    <rc><c>O </c><c>   4</c></rc>
    <rc><c>O </c><c>   4</c></rc>
    <rc><c>O </c><c>   4</c></rc>
    <rc><c>O </c><c>   4</c></rc>
    <rc><c>O </c><c>   4</c></rc>
    <rc><c>O </c><c>   4</c></rc>
    <rc><c>O </c><c>   4</c></rc>
    <rc><c>O </c><c>   4</c></rc>
    <rc><c>O </c><c>   4</c></rc>
    <rc><c>O </c><c>   4</c></rc>
    <rc><c>O </c><c>   4</c></rc>
    <rc><c>O </c><c>   4</c></rc>
    <rc><c>O </c><c>   4</c></rc>
    <rc><c>O </c><c>   4</c></rc>
    <rc><c>O </c><c>   4</c></rc>
    <rc><c>O </c><c>   4</c></rc>
    <rc><c>O </c><c>   4</c></rc>
    <rc><c>O </c><c>   4</c></rc>
    <rc><c>O </c><c>   4</c></rc>
    <rc><c>O </c><c>   4</c></rc>
    <rc><c>O </c><c>   4</c></rc>
    <rc><c>O </c><c>   4</c></rc>
    <rc><c>O </c><c>   4</c></rc>
    <rc><c>O </c><c>   4</c></rc>
    <rc><c>O </c><c>   4</c></rc>
    <rc><c>O </c><c>   4</c></rc>
    <rc><c>O </c><c>   4</c></rc>
    <rc><c>O </c><c>   4</c></rc>
   </set>
  </array>
  <array name="atomtypes" >
   <dimension dim="1">type</dimension>
   <field type="int">atomspertype</field>
   <field type="string">element</field>
   <field>mass</field>
   <field>valence</field>
   <field type="string">pseudopotential</field>
   <set>
    <rc><c>  32</c><c>Sr</c><c>     87.62000000</c><c>     10.00000000</c><c>  PAW_PBE Sr_sv 07Sep2000               </c></rc>
    <rc><c>  24</c><c>Ti</c><c>     47.88000000</c><c>      4.00000000</c><c>  PAW_PBE Ti 08Apr2002                  </c></rc>
    <rc><c>   8</c><c>Fe</c><c>     55.84700000</c><c>      8.00000000</c><c>  PAW_PBE Fe 06Sep2000                  </c></rc>
    <rc><c>  92</c><c>O </c><c>     16.00000000</c><c>      6.00000000</c><c>  PAW_PBE O 08Apr2002                   </c></rc>
   </set>
  </array>
 </atominfo>
 <structure name="initialpos" >
  <crystal>
   <varray name="basis" >
    <v>      11.23432081       0.00352694      -0.00128243 </v>
    <v>       0.00356207      11.25814456       0.00068221 </v>
    <v>      -0.00183896       0.00093307      15.86277569 </v>
   </varray>
   <i name="volume">   2006.28568692 </i>
   <varray name="rec_basis" >
    <v>       0.08901296      -0.00002816       0.00001032 </v>
    <v>      -0.00002789       0.08882459      -0.00000523 </v>
    <v>       0.00000720      -0.00000382       0.06304067 </v>
   </varray>
  </crystal>
  <varray name="positions" >
   <v>       0.99280411       0.24556963       0.11826300 </v>
   <v>       0.99817959       0.24992515       0.62360029 </v>
   <v>       0.99280411       0.74556963       0.11826300 </v>
   <v>       0.99817959       0.74992515       0.62360029 </v>
   <v>       0.50324663       0.24935651       0.12284958 </v>
   <v>       0.50174757       0.24998619       0.62199787 </v>
   <v>       0.50324663       0.74935651       0.12284958 </v>
   <v>       0.50174757       0.74998619       0.62199787 </v>
   <v>       0.98978429       0.24626127       0.38465290 </v>
   <v>       0.99989757       0.24984279       0.87327189 </v>
   <v>       0.98978429       0.74626127       0.38465290 </v>
   <v>       0.99989757       0.74984279       0.87327189 </v>
   <v>       0.50541647       0.24916039       0.37840559 </v>
   <v>       0.50050836       0.25019896       0.87444064 </v>
   <v>       0.50541647       0.74916039       0.37840559 </v>
   <v>       0.50050836       0.75019896       0.87444064 </v>
   <v>       0.24640588       0.00364707       0.11486490 </v>
   <v>       0.25066017       0.99870007       0.62443652 </v>
   <v>       0.24640588       0.50364707       0.11486490 </v>
   <v>       0.25066017       0.49870007       0.62443652 </v>
   <v>       0.75228343       0.00164077       0.12274038 </v>
   <v>       0.75017536       0.99960010       0.62166336 </v>
   <v>       0.75228343       0.50164077       0.12274038 </v>
   <v>       0.75017536       0.49960010       0.62166336 </v>
   <v>       0.24552013       0.00379363       0.38648239 </v>
   <v>       0.25076960       0.99878781       0.87312511 </v>
   <v>       0.24552013       0.50379363       0.38648239 </v>
   <v>       0.25076960       0.49878781       0.87312511 </v>
   <v>       0.75216836       0.00151655       0.38016192 </v>
   <v>       0.75061291       0.99935493       0.87410962 </v>
   <v>       0.75216836       0.50151655       0.38016192 </v>
   <v>       0.75061291       0.49935493       0.87410962 </v>
   <v>       0.99978197       0.99980417       0.00075890 </v>
   <v>       0.99978197       0.49980417       0.00075890 </v>
   <v>       0.99688821       0.50004985       0.49894846 </v>
   <v>       0.49948297       0.00024055       0.00258395 </v>
   <v>       0.50121809       0.00052985       0.49628834 </v>
   <v>       0.49948297       0.50024055       0.00258395 </v>
   <v>       0.50121809       0.50052985       0.49628834 </v>
   <v>       0.24902275       0.24887806       0.00000592 </v>
   <v>       0.24859764       0.24898038       0.49861920 </v>
   <v>       0.24902275       0.74887806       0.00000592 </v>
   <v>       0.00015874       0.49804610       0.74943194 </v>
   <v>       0.00015874       0.99804610       0.74943194 </v>
   <v>       0.24859764       0.74898038       0.49861920 </v>
   <v>       0.74927496       0.25049511       0.74810884 </v>
   <v>       0.49976388       0.49914430       0.74925469 </v>
   <v>       0.99688821       0.00004985       0.49894846 </v>
   <v>       0.75229577       0.74313270       0.25214760 </v>
   <v>       0.75229577       0.24313270       0.25214760 </v>
   <v>       0.74919788       0.24989401       0.99975775 </v>
   <v>       0.74927496       0.75049511       0.74810884 </v>
   <v>       0.49976388       0.99914430       0.74925469 </v>
   <v>       0.74919788       0.74989401       0.99975775 </v>
   <v>       0.25016379       0.25053338       0.74885327 </v>
   <v>       0.25016379       0.75053338       0.74885327 </v>
   <v>       0.74809597       0.74998943       0.50046266 </v>
   <v>       0.52223999       0.99065428       0.25002301 </v>
   <v>       0.74809597       0.24998943       0.50046266 </v>
   <v>       0.98921327       0.98589689       0.25039526 </v>
   <v>       0.98921327       0.48589689       0.25039526 </v>
   <v>       0.25353079       0.79145982       0.25053374 </v>
   <v>       0.52223999       0.49065428       0.25002301 </v>
   <v>       0.25353079       0.29145982       0.25053374 </v>
   <v>       0.00373048       0.01310936       0.12560979 </v>
   <v>       0.00271533       0.99157748       0.62570491 </v>
   <v>       0.00373048       0.51310936       0.12560979 </v>
   <v>       0.00271533       0.49157748       0.62570491 </v>
   <v>       0.49191262       0.01184878       0.12823789 </v>
   <v>       0.49347436       0.99574065       0.62432452 </v>
   <v>       0.49191262       0.51184878       0.12823789 </v>
   <v>       0.49347436       0.49574065       0.62432452 </v>
   <v>       0.00382284       0.01413104       0.37362231 </v>
   <v>       0.00203304       0.99242337       0.87557428 </v>
   <v>       0.00382284       0.51413104       0.37362231 </v>
   <v>       0.00203304       0.49242337       0.87557428 </v>
   <v>       0.48999499       0.01321229       0.37053763 </v>
   <v>       0.49421875       0.99571424       0.87686327 </v>
   <v>       0.48999499       0.51321229       0.37053763 </v>
   <v>       0.49421875       0.49571424       0.87686327 </v>
   <v>       0.23737321       0.22743080       0.36144244 </v>
   <v>       0.24929539       0.25631389       0.87708420 </v>
   <v>       0.23737321       0.72743080       0.36144244 </v>
   <v>       0.24929539       0.75631389       0.87708420 </v>
   <v>       0.75166854       0.24404146       0.37455684 </v>
   <v>       0.74694581       0.25483969       0.87560544 </v>
   <v>       0.75166854       0.74404146       0.37455684 </v>
   <v>       0.74694581       0.75483969       0.87560544 </v>
   <v>       0.23734684       0.22655326       0.13962122 </v>
   <v>       0.24907899       0.25644477       0.62382682 </v>
   <v>       0.23734684       0.72655326       0.13962122 </v>
   <v>       0.24907899       0.75644477       0.62382682 </v>
   <v>       0.75220264       0.24491393       0.12363656 </v>
   <v>       0.74630540       0.25445732       0.62662488 </v>
   <v>       0.75220264       0.74491393       0.12363656 </v>
   <v>       0.74630540       0.75445732       0.62662488 </v>
   <v>       0.60565507       0.14669300       0.24894067 </v>
   <v>       0.85939014       0.10308955       0.24916171 </v>
   <v>       0.15808828       0.43008900       0.25000449 </v>
   <v>       0.40713554       0.35395947       0.24979341 </v>
   <v>       0.66002590       0.39543129       0.24979331 </v>
   <v>       0.90659974       0.34132459       0.24972538 </v>
   <v>       0.60565507       0.64669300       0.24894067 </v>
   <v>       0.85939014       0.60308955       0.24916171 </v>
   <v>       0.15808828       0.93008900       0.25000449 </v>
   <v>       0.40713554       0.85395947       0.24979341 </v>
   <v>       0.66002590       0.89543129       0.24979331 </v>
   <v>       0.90659974       0.84132459       0.24972538 </v>
   <v>       0.13506539       0.11460975       0.50523744 </v>
   <v>       0.38073432       0.13446379       0.50001943 </v>
   <v>       0.63115274       0.11437482       0.50171620 </v>
   <v>       0.88470103       0.13272154       0.50581234 </v>
   <v>       0.11589814       0.36337680       0.49242666 </v>
   <v>       0.36315447       0.38058631       0.49185728 </v>
   <v>       0.61202279       0.36768575       0.49520556 </v>
   <v>       0.86704731       0.38494146       0.49611100 </v>
   <v>       0.13506539       0.61460975       0.50523744 </v>
   <v>       0.38073432       0.63446379       0.50001943 </v>
   <v>       0.63115274       0.61437482       0.50171620 </v>
   <v>       0.88470103       0.63272154       0.50581234 </v>
   <v>       0.11589814       0.86337680       0.49242666 </v>
   <v>       0.36315447       0.88058631       0.49185728 </v>
   <v>       0.61202279       0.86768575       0.49520556 </v>
   <v>       0.86704731       0.88494146       0.49611100 </v>
   <v>       0.11091066       0.13905564       0.75039821 </v>
   <v>       0.35905427       0.11112378       0.75060893 </v>
   <v>       0.60886797       0.13856559       0.75092148 </v>
   <v>       0.86083754       0.10966125       0.75048750 </v>
   <v>       0.14079974       0.38928304       0.75087826 </v>
   <v>       0.38945329       0.35909214       0.75068732 </v>
   <v>       0.63853407       0.39115878       0.75091418 </v>
   <v>       0.88991985       0.35910974       0.75090284 </v>
   <v>       0.11091066       0.63905564       0.75039821 </v>
   <v>       0.35905427       0.61112378       0.75060893 </v>
   <v>       0.60886797       0.63856559       0.75092148 </v>
   <v>       0.86083754       0.60966125       0.75048750 </v>
   <v>       0.14079974       0.88928304       0.75087826 </v>
   <v>       0.38945329       0.85909214       0.75068732 </v>
   <v>       0.63853407       0.89115878       0.75091418 </v>
   <v>       0.88991985       0.85910974       0.75090284 </v>
   <v>       0.13699060       0.11247329       0.99539357 </v>
   <v>       0.38378249       0.13611495       0.00046523 </v>
   <v>       0.63574138       0.11243730       0.99847748 </v>
   <v>       0.88644106       0.13643402       0.99495101 </v>
   <v>       0.11403098       0.36163993       0.00807018 </v>
   <v>       0.36267893       0.38194163       0.00847274 </v>
   <v>       0.61207118       0.36418014       0.00450341 </v>
   <v>       0.86398880       0.38655863       0.00395028 </v>
   <v>       0.13699060       0.61247329       0.99539357 </v>
   <v>       0.38378249       0.63611495       0.00046523 </v>
   <v>       0.63574138       0.61243730       0.99847748 </v>
   <v>       0.88644106       0.63643402       0.99495101 </v>
   <v>       0.11403098       0.86163993       0.00807018 </v>
   <v>       0.36267893       0.88194163       0.00847274 </v>
   <v>       0.61207118       0.86418014       0.00450341 </v>
   <v>       0.86398880       0.88655863       0.00395028 </v>
  </varray>
 </structure>
 <calculation>
  <scstep>
   <time name="dav">  306.08  306.13</time>
   <time name="total">  309.75  309.83</time>
   <energy>
    <i name="alphaZ">   5624.99967550 </i>
    <i name="ewald"> -61458.64305421 </i>
    <i name="hartreedc"> -16064.66464069 </i>
    <i name="XCdc">   2964.29023204 </i>
    <i name="pawpsdc"> 113575.13022872 </i>
    <i name="pawaedc">-112475.30275682 </i>
    <i name="eentropy">     -0.00000000 </i>
    <i name="bandstr">  -7070.81150894 </i>
    <i name="atom">  73783.44779670 </i>
    <i name="e_fr_energy">  -1121.55402771 </i>
    <i name="e_wo_entrp">  -1121.55402771 </i>
    <i name="e_0_energy">  -1121.55402771 </i>
   </energy>
  </scstep>
  <scstep>
   <time name="diag">   33.31   33.32</time>
   <time name="diis">   32.04   32.06</time>
   <time name="orth">   18.91   18.92</time>
   <time name="total">   88.01   88.10</time>
   <energy>
    <i name="e_fr_energy">  -1121.55402884 </i>
    <i name="e_wo_entrp">  -1121.55402884 </i>
    <i name="e_0_energy">  -1121.55402884 </i>
   </energy>
  </scstep>
  <scstep>
   <time name="diag">   33.29   33.31</time>
   <time name="diis">   31.33   31.36</time>
   <time name="orth">   18.88   18.88</time>
   <time name="total">   87.25   87.38</time>
   <energy>
    <i name="e_fr_energy">  -1121.55403024 </i>
    <i name="e_wo_entrp">  -1121.55403024 </i>
    <i name="e_0_energy">  -1121.55403024 </i>
   </energy>
  </scstep>
  <scstep>
   <time name="diag">   33.34   33.34</time>
   <time name="diis">   29.76   29.77</time>
   <time name="orth">   18.88   18.88</time>
   <time name="total">   85.75   85.81</time>
   <energy>
    <i name="e_fr_energy">  -1121.55403239 </i>
    <i name="e_wo_entrp">  -1121.55403239 </i>
    <i name="e_0_energy">  -1121.55403239 </i>
   </energy>
  </scstep>
  <scstep>
   <time name="diag">   33.31   33.31</time>
   <time name="diis">   29.05   29.07</time>
   <time name="orth">   18.87   18.87</time>
   <time name="total">   85.00   85.04</time>
   <energy>
    <i name="e_fr_energy">  -1121.55403366 </i>
    <i name="e_wo_entrp">  -1121.55403366 </i>
    <i name="e_0_energy">  -1121.55403366 </i>
   </energy>
  </scstep>
  <scstep>
   <time name="diag">   33.27   33.28</time>
   <time name="diis">   27.83   27.85</time>
   <time name="orth">   18.88   18.88</time>
   <time name="total">   83.76   83.83</time>
   <energy>
    <i name="e_fr_energy">  -1121.55403495 </i>
    <i name="e_wo_entrp">  -1121.55403495 </i>
    <i name="e_0_energy">  -1121.55403495 </i>
   </energy>
  </scstep>
  <scstep>
   <time name="diag">   33.30   33.32</time>
   <time name="diis">   26.71   26.70</time>
   <time name="orth">   18.91   18.91</time>
   <time name="total">   82.66   82.71</time>
   <energy>
    <i name="e_fr_energy">  -1121.55403541 </i>
    <i name="e_wo_entrp">  -1121.55403541 </i>
    <i name="e_0_energy">  -1121.55403541 </i>
   </energy>
  </scstep>
  <scstep>
   <time name="diag">   33.26   33.27</time>
   <time name="diis">   25.12   25.13</time>
   <time name="orth">   18.89   18.89</time>
   <time name="total">   77.85   77.93</time>
   <energy>
    <i name="alphaZ">   5624.99967550 </i>
    <i name="ewald"> -61458.64305421 </i>
    <i name="hartreedc"> -16064.65676925 </i>
    <i name="XCdc">   2964.28671693 </i>
    <i name="pawpsdc"> 113571.86069188 </i>
    <i name="pawaedc">-112472.01144671 </i>
    <i name="eentropy">     -0.00000000 </i>
    <i name="bandstr">  -7070.83764651 </i>
    <i name="atom">  73783.44779670 </i>
    <i name="e_fr_energy">  -1121.55403568 </i>
    <i name="e_wo_entrp">  -1121.55403568 </i>
    <i name="e_0_energy">  -1121.55403568 </i>
   </energy>
  </scstep>
  <structure>
   <crystal>
    <varray name="basis" >
     <v>      11.23432081       0.00352694      -0.00128243 </v>
     <v>       0.00356207      11.25814456       0.00068221 </v>
     <v>      -0.00183896       0.00093307      15.86277569 </v>
    </varray>
    <i name="volume">   2006.28568692 </i>
    <varray name="rec_basis" >
     <v>       0.08901296      -0.00002816       0.00001032 </v>
     <v>      -0.00002789       0.08882459      -0.00000523 </v>
     <v>       0.00000720      -0.00000382       0.06304067 </v>
    </varray>
   </crystal>
   <varray name="positions" >
    <v>       0.99280411       0.24556963       0.11826300 </v>
    <v>       0.99817959       0.24992515       0.62360029 </v>
    <v>       0.99280411       0.74556963       0.11826300 </v>
    <v>       0.99817959       0.74992515       0.62360029 </v>
    <v>       0.50324663       0.24935651       0.12284958 </v>
    <v>       0.50174757       0.24998619       0.62199787 </v>
    <v>       0.50324663       0.74935651       0.12284958 </v>
    <v>       0.50174757       0.74998619       0.62199787 </v>
    <v>       0.98978429       0.24626127       0.38465290 </v>
    <v>       0.99989757       0.24984279       0.87327189 </v>
    <v>       0.98978429       0.74626127       0.38465290 </v>
    <v>       0.99989757       0.74984279       0.87327189 </v>
    <v>       0.50541647       0.24916039       0.37840559 </v>
    <v>       0.50050836       0.25019896       0.87444064 </v>
    <v>       0.50541647       0.74916039       0.37840559 </v>
    <v>       0.50050836       0.75019896       0.87444064 </v>
    <v>       0.24640588       0.00364707       0.11486490 </v>
    <v>       0.25066017       0.99870007       0.62443652 </v>
    <v>       0.24640588       0.50364707       0.11486490 </v>
    <v>       0.25066017       0.49870007       0.62443652 </v>
    <v>       0.75228343       0.00164077       0.12274038 </v>
    <v>       0.75017536       0.99960010       0.62166336 </v>
    <v>       0.75228343       0.50164077       0.12274038 </v>
    <v>       0.75017536       0.49960010       0.62166336 </v>
    <v>       0.24552013       0.00379363       0.38648239 </v>
    <v>       0.25076960       0.99878781       0.87312511 </v>
    <v>       0.24552013       0.50379363       0.38648239 </v>
    <v>       0.25076960       0.49878781       0.87312511 </v>
    <v>       0.75216836       0.00151655       0.38016192 </v>
    <v>       0.75061291       0.99935493       0.87410962 </v>
    <v>       0.75216836       0.50151655       0.38016192 </v>
    <v>       0.75061291       0.49935493       0.87410962 </v>
    <v>       0.99978197       0.99980417       0.00075890 </v>
    <v>       0.99978197       0.49980417       0.00075890 </v>
    <v>       0.99688821       0.50004985       0.49894846 </v>
    <v>       0.49948297       0.00024055       0.00258395 </v>
    <v>       0.50121809       0.00052985       0.49628834 </v>
    <v>       0.49948297       0.50024055       0.00258395 </v>
    <v>       0.50121809       0.50052985       0.49628834 </v>
    <v>       0.24902275       0.24887806       0.00000592 </v>
    <v>       0.24859764       0.24898038       0.49861920 </v>
    <v>       0.24902275       0.74887806       0.00000592 </v>
    <v>       0.00015874       0.49804610       0.74943194 </v>
    <v>       0.00015874       0.99804610       0.74943194 </v>
    <v>       0.24859764       0.74898038       0.49861920 </v>
    <v>       0.74927496       0.25049511       0.74810884 </v>
    <v>       0.49976388       0.49914430       0.74925469 </v>
    <v>       0.99688821       0.00004985       0.49894846 </v>
    <v>       0.75229577       0.74313270       0.25214760 </v>
    <v>       0.75229577       0.24313270       0.25214760 </v>
    <v>       0.74919788       0.24989401       0.99975775 </v>
    <v>       0.74927496       0.75049511       0.74810884 </v>
    <v>       0.49976388       0.99914430       0.74925469 </v>
    <v>       0.74919788       0.74989401       0.99975775 </v>
    <v>       0.25016379       0.25053338       0.74885327 </v>
    <v>       0.25016379       0.75053338       0.74885327 </v>
    <v>       0.74809597       0.74998943       0.50046266 </v>
    <v>       0.52223999       0.99065428       0.25002301 </v>
    <v>       0.74809597       0.24998943       0.50046266 </v>
    <v>       0.98921327       0.98589689       0.25039526 </v>
    <v>       0.98921327       0.48589689       0.25039526 </v>
    <v>       0.25353079       0.79145982       0.25053374 </v>
    <v>       0.52223999       0.49065428       0.25002301 </v>
    <v>       0.25353079       0.29145982       0.25053374 </v>
    <v>       0.00373048       0.01310936       0.12560979 </v>
    <v>       0.00271533       0.99157748       0.62570491 </v>
    <v>       0.00373048       0.51310936       0.12560979 </v>
    <v>       0.00271533       0.49157748       0.62570491 </v>
    <v>       0.49191262       0.01184878       0.12823789 </v>
    <v>       0.49347436       0.99574065       0.62432452 </v>
    <v>       0.49191262       0.51184878       0.12823789 </v>
    <v>       0.49347436       0.49574065       0.62432452 </v>
    <v>       0.00382284       0.01413104       0.37362231 </v>
    <v>       0.00203304       0.99242337       0.87557428 </v>
    <v>       0.00382284       0.51413104       0.37362231 </v>
    <v>       0.00203304       0.49242337       0.87557428 </v>
    <v>       0.48999499       0.01321229       0.37053763 </v>
    <v>       0.49421875       0.99571424       0.87686327 </v>
    <v>       0.48999499       0.51321229       0.37053763 </v>
    <v>       0.49421875       0.49571424       0.87686327 </v>
    <v>       0.23737321       0.22743080       0.36144244 </v>
    <v>       0.24929539       0.25631389       0.87708420 </v>
    <v>       0.23737321       0.72743080       0.36144244 </v>
    <v>       0.24929539       0.75631389       0.87708420 </v>
    <v>       0.75166854       0.24404146       0.37455684 </v>
    <v>       0.74694581       0.25483969       0.87560544 </v>
    <v>       0.75166854       0.74404146       0.37455684 </v>
    <v>       0.74694581       0.75483969       0.87560544 </v>
    <v>       0.23734684       0.22655326       0.13962122 </v>
    <v>       0.24907899       0.25644477       0.62382682 </v>
    <v>       0.23734684       0.72655326       0.13962122 </v>
    <v>       0.24907899       0.75644477       0.62382682 </v>
    <v>       0.75220264       0.24491393       0.12363656 </v>
    <v>       0.74630540       0.25445732       0.62662488 </v>
    <v>       0.75220264       0.74491393       0.12363656 </v>
    <v>       0.74630540       0.75445732       0.62662488 </v>
    <v>       0.60565507       0.14669300       0.24894067 </v>
    <v>       0.85939014       0.10308955       0.24916171 </v>
    <v>       0.15808828       0.43008900       0.25000449 </v>
    <v>       0.40713554       0.35395947       0.24979341 </v>
    <v>       0.66002590       0.39543129       0.24979331 </v>
    <v>       0.90659974       0.34132459       0.24972538 </v>
    <v>       0.60565507       0.64669300       0.24894067 </v>
    <v>       0.85939014       0.60308955       0.24916171 </v>
    <v>       0.15808828       0.93008900       0.25000449 </v>
    <v>       0.40713554       0.85395947       0.24979341 </v>
    <v>       0.66002590       0.89543129       0.24979331 </v>
    <v>       0.90659974       0.84132459       0.24972538 </v>
    <v>       0.13506539       0.11460975       0.50523744 </v>
    <v>       0.38073432       0.13446379       0.50001943 </v>
    <v>       0.63115274       0.11437482       0.50171620 </v>
    <v>       0.88470103       0.13272154       0.50581234 </v>
    <v>       0.11589814       0.36337680       0.49242666 </v>
    <v>       0.36315447       0.38058631       0.49185728 </v>
    <v>       0.61202279       0.36768575       0.49520556 </v>
    <v>       0.86704731       0.38494146       0.49611100 </v>
    <v>       0.13506539       0.61460975       0.50523744 </v>
    <v>       0.38073432       0.63446379       0.50001943 </v>
    <v>       0.63115274       0.61437482       0.50171620 </v>
    <v>       0.88470103       0.63272154       0.50581234 </v>
    <v>       0.11589814       0.86337680       0.49242666 </v>
    <v>       0.36315447       0.88058631       0.49185728 </v>
    <v>       0.61202279       0.86768575       0.49520556 </v>
    <v>       0.86704731       0.88494146       0.49611100 </v>
    <v>       0.11091066       0.13905564       0.75039821 </v>
    <v>       0.35905427       0.11112378       0.75060893 </v>
    <v>       0.60886797       0.13856559       0.75092148 </v>
    <v>       0.86083754       0.10966125       0.75048750 </v>
    <v>       0.14079974       0.38928304       0.75087826 </v>
    <v>       0.38945329       0.35909214       0.75068732 </v>
    <v>       0.63853407       0.39115878       0.75091418 </v>
    <v>       0.88991985       0.35910974       0.75090284 </v>
    <v>       0.11091066       0.63905564       0.75039821 </v>
    <v>       0.35905427       0.61112378       0.75060893 </v>
    <v>       0.60886797       0.63856559       0.75092148 </v>
    <v>       0.86083754       0.60966125       0.75048750 </v>
    <v>       0.14079974       0.88928304       0.75087826 </v>
    <v>       0.38945329       0.85909214       0.75068732 </v>
    <v>       0.63853407       0.89115878       0.75091418 </v>
    <v>       0.88991985       0.85910974       0.75090284 </v>
    <v>       0.13699060       0.11247329       0.99539357 </v>
    <v>       0.38378249       0.13611495       0.00046523 </v>
    <v>       0.63574138       0.11243730       0.99847748 </v>
    <v>       0.88644106       0.13643402       0.99495101 </v>
    <v>       0.11403098       0.36163993       0.00807018 </v>
    <v>       0.36267893       0.38194163       0.00847274 </v>
    <v>       0.61207118       0.36418014       0.00450341 </v>
    <v>       0.86398880       0.38655863       0.00395028 </v>
    <v>       0.13699060       0.61247329       0.99539357 </v>
    <v>       0.38378249       0.63611495       0.00046523 </v>
    <v>       0.63574138       0.61243730       0.99847748 </v>
    <v>       0.88644106       0.63643402       0.99495101 </v>
    <v>       0.11403098       0.86163993       0.00807018 </v>
    <v>       0.36267893       0.88194163       0.00847274 </v>
    <v>       0.61207118       0.86418014       0.00450341 </v>
    <v>       0.86398880       0.88655863       0.00395028 </v>
   </varray>
  </structure>
  <varray name="forces" >
   <v>      -0.00879568       0.01951094       0.00254386 </v>
   <v>       0.00228383      -0.01308302       0.00874076 </v>
   <v>      -0.00879568       0.01951094       0.00254386 </v>
   <v>       0.00228383      -0.01308302       0.00874076 </v>
   <v>       0.03938650      -0.02205507       0.04452561 </v>
   <v>      -0.01999925       0.00388312       0.01140730 </v>
   <v>       0.03938650      -0.02205507       0.04452561 </v>
   <v>      -0.01999925       0.00388312       0.01140730 </v>
   <v>      -0.00212684       0.02362269       0.00502240 </v>
   <v>       0.01045221      -0.01096968       0.00517537 </v>
   <v>      -0.00212684       0.02362269       0.00502240 </v>
   <v>       0.01045221      -0.01096968       0.00517537 </v>
   <v>       0.02983016      -0.02763690      -0.02219753 </v>
   <v>      -0.01112912      -0.00078422       0.00441906 </v>
   <v>       0.02983016      -0.02763690      -0.02219753 </v>
   <v>      -0.01112912      -0.00078422       0.00441906 </v>
   <v>       0.00086366      -0.02682971       0.04916813 </v>
   <v>       0.00580046       0.01347181       0.02758669 </v>
   <v>       0.00086366      -0.02682971       0.04916813 </v>
   <v>       0.00580046       0.01347181       0.02758669 </v>
   <v>       0.00277458      -0.00072431       0.03117848 </v>
   <v>      -0.03237997       0.01601037       0.01383196 </v>
   <v>       0.00277458      -0.00072431       0.03117848 </v>
   <v>      -0.03237997       0.01601037       0.01383196 </v>
   <v>      -0.00391221      -0.02713707      -0.04609142 </v>
   <v>       0.00365208       0.01163378      -0.02252895 </v>
   <v>      -0.00391221      -0.02713707      -0.04609142 </v>
   <v>       0.00365208       0.01163378      -0.02252895 </v>
   <v>       0.00291306       0.00847899      -0.03768878 </v>
   <v>      -0.02164608       0.01645037       0.00663116 </v>
   <v>       0.00291306       0.00847899      -0.03768878 </v>
   <v>      -0.02164608       0.01645037       0.00663116 </v>
   <v>      -0.08595025       0.00022250      -0.00621140 </v>
   <v>      -0.08595025       0.00022250      -0.00621140 </v>
   <v>      -0.04519830       0.02433184       0.00033822 </v>
   <v>       0.04525722      -0.00437680      -0.00376689 </v>
   <v>      -0.01182942      -0.00008240       0.02594982 </v>
   <v>       0.04525722      -0.00437680      -0.00376689 </v>
   <v>      -0.01182942      -0.00008240       0.02594982 </v>
   <v>      -0.00174644       0.03128612      -0.03726421 </v>
   <v>       0.02658455       0.00131355       0.04076662 </v>
   <v>      -0.00174644       0.03128612      -0.03726421 </v>
   <v>      -0.02011695       0.04277787       0.00617058 </v>
   <v>      -0.02011695       0.04277787       0.00617058 </v>
   <v>       0.02658455       0.00131355       0.04076662 </v>
   <v>       0.01861640      -0.01537967       0.04112992 </v>
   <v>      -0.02469590       0.00257831      -0.01823132 </v>
   <v>      -0.04519830       0.02433184       0.00033822 </v>
   <v>       0.03630851      -0.09100763      -0.05196665 </v>
   <v>       0.03630851      -0.09100763      -0.05196665 </v>
   <v>      -0.00772726      -0.00254800       0.00622859 </v>
   <v>       0.01861640      -0.01537967       0.04112992 </v>
   <v>      -0.02469590       0.00257831      -0.01823132 </v>
   <v>      -0.00772726      -0.00254800       0.00622859 </v>
   <v>       0.00421654      -0.00553074      -0.00563943 </v>
   <v>       0.00421654      -0.00553074      -0.00563943 </v>
   <v>      -0.00176346      -0.01460060       0.02152059 </v>
   <v>      -0.00972342      -0.02428629       0.00601610 </v>
   <v>      -0.00176346      -0.01460060       0.02152059 </v>
   <v>       0.00189231       0.02536937       0.00552165 </v>
   <v>       0.00189231       0.02536937       0.00552165 </v>
   <v>       0.00756218       0.02559833      -0.00113842 </v>
   <v>      -0.00972342      -0.02428629       0.00601610 </v>
   <v>       0.00756218       0.02559833      -0.00113842 </v>
   <v>      -0.00187188      -0.00787581      -0.05490239 </v>
   <v>      -0.02101505       0.04068711      -0.04037995 </v>
   <v>      -0.00187188      -0.00787581      -0.05490239 </v>
   <v>      -0.02101505       0.04068711      -0.04037995 </v>
   <v>      -0.02129382      -0.00042982      -0.02696468 </v>
   <v>       0.02039178       0.02453863      -0.01752293 </v>
   <v>      -0.02129382      -0.00042982      -0.02696468 </v>
   <v>       0.02039178       0.02453863      -0.01752293 </v>
   <v>      -0.00173890      -0.02419813       0.06821426 </v>
   <v>      -0.01453425       0.04149131       0.02638439 </v>
   <v>      -0.00173890      -0.02419813       0.06821426 </v>
   <v>      -0.01453425       0.04149131       0.02638439 </v>
   <v>      -0.00634442       0.00259506       0.02342894 </v>
   <v>       0.00591057       0.03392722       0.04924551 </v>
   <v>      -0.00634442       0.00259506       0.02342894 </v>
   <v>       0.00591057       0.03392722       0.04924551 </v>
   <v>      -0.01068922       0.00207313      -0.04261655 </v>
   <v>       0.00969617      -0.05745353       0.03725145 </v>
   <v>      -0.01068922       0.00207313      -0.04261655 </v>
   <v>       0.00969617      -0.05745353       0.03725145 </v>
   <v>       0.02453544      -0.00005477      -0.00397740 </v>
   <v>       0.00562942      -0.01985219      -0.03206818 </v>
   <v>       0.02453544      -0.00005477      -0.00397740 </v>
   <v>       0.00562942      -0.01985219      -0.03206818 </v>
   <v>       0.00266279      -0.00172653       0.03229418 </v>
   <v>       0.01873887      -0.04444312      -0.01534650 </v>
   <v>       0.00266279      -0.00172653       0.03229418 </v>
   <v>       0.01873887      -0.04444312      -0.01534650 </v>
   <v>       0.01844257      -0.00130140       0.00590313 </v>
   <v>       0.01043868      -0.00315036      -0.03077415 </v>
   <v>       0.01844257      -0.00130140       0.00590313 </v>
   <v>       0.01043868      -0.00315036      -0.03077415 </v>
   <v>      -0.03566339      -0.03372597       0.00418259 </v>
   <v>       0.04724999       0.00882763       0.00843524 </v>
   <v>       0.04889853       0.06294799      -0.00950594 </v>
   <v>       0.00613509      -0.02117166      -0.00159989 </v>
   <v>       0.00685328      -0.05863896       0.00715650 </v>
   <v>       0.02017608      -0.08508834       0.00913355 </v>
   <v>      -0.03566339      -0.03372597       0.00418259 </v>
   <v>       0.04724999       0.00882763       0.00843524 </v>
   <v>       0.04889853       0.06294799      -0.00950594 </v>
   <v>       0.00613509      -0.02117166      -0.00159989 </v>
   <v>       0.00685328      -0.05863896       0.00715650 </v>
   <v>       0.02017608      -0.08508834       0.00913355 </v>
   <v>      -0.03729200       0.01979400      -0.00595913 </v>
   <v>      -0.02238340      -0.00339399      -0.01093817 </v>
   <v>      -0.01190311      -0.00184984       0.00132918 </v>
   <v>       0.01374036      -0.00931490      -0.01426108 </v>
   <v>       0.02269382       0.03509882       0.04474152 </v>
   <v>      -0.02609424       0.02138759       0.02214744 </v>
   <v>       0.01714044       0.01862190       0.00035888 </v>
   <v>       0.03326648      -0.00827398       0.05406973 </v>
   <v>      -0.03729200       0.01979400      -0.00595913 </v>
   <v>      -0.02238340      -0.00339399      -0.01093817 </v>
   <v>      -0.01190311      -0.00184984       0.00132918 </v>
   <v>       0.01374036      -0.00931490      -0.01426108 </v>
   <v>       0.02269382       0.03509882       0.04474152 </v>
   <v>      -0.02609424       0.02138759       0.02214744 </v>
   <v>       0.01714044       0.01862190       0.00035888 </v>
   <v>       0.03326648      -0.00827398       0.05406973 </v>
   <v>       0.00600005       0.02357800      -0.01002188 </v>
   <v>      -0.02116740      -0.02044386      -0.00172313 </v>
   <v>       0.01667831       0.03057166      -0.00185970 </v>
   <v>      -0.02549560       0.03170459      -0.00379646 </v>
   <v>       0.00866932      -0.01727571      -0.00198434 </v>
   <v>      -0.01115377      -0.00946018      -0.01132699 </v>
   <v>       0.02843012      -0.01967052      -0.01012820 </v>
   <v>      -0.02898607      -0.01976405      -0.00316124 </v>
   <v>       0.00600005       0.02357800      -0.01002188 </v>
   <v>      -0.02116740      -0.02044386      -0.00172313 </v>
   <v>       0.01667831       0.03057166      -0.00185970 </v>
   <v>      -0.02549560       0.03170459      -0.00379646 </v>
   <v>       0.00866932      -0.01727571      -0.00198434 </v>
   <v>      -0.01115377      -0.00946018      -0.01132699 </v>
   <v>       0.02843012      -0.01967052      -0.01012820 </v>
   <v>      -0.02898607      -0.01976405      -0.00316124 </v>
   <v>      -0.00550218       0.04424585      -0.00973050 </v>
   <v>      -0.03811233       0.00343573       0.01089070 </v>
   <v>      -0.02619293       0.00278941      -0.00052756 </v>
   <v>       0.01639940      -0.01219358       0.01737350 </v>
   <v>       0.04894274       0.01380851      -0.06727127 </v>
   <v>      -0.04827408       0.00574479      -0.03205031 </v>
   <v>      -0.01401626       0.03228127      -0.01126523 </v>
   <v>       0.04235032       0.00109321      -0.06202483 </v>
   <v>      -0.00550218       0.04424585      -0.00973050 </v>
   <v>      -0.03811233       0.00343573       0.01089070 </v>
   <v>      -0.02619293       0.00278941      -0.00052756 </v>
   <v>       0.01639940      -0.01219358       0.01737350 </v>
   <v>       0.04894274       0.01380851      -0.06727127 </v>
   <v>      -0.04827408       0.00574479      -0.03205031 </v>
   <v>      -0.01401626       0.03228127      -0.01126523 </v>
   <v>       0.04235032       0.00109321      -0.06202483 </v>
  </varray>
  <varray name="stress" >
   <v>       0.49140366       0.06066137      -0.08808071 </v>
   <v>       0.06066152       1.58040885      -0.01387888 </v>
   <v>      -0.08808054      -0.01387893       0.67539673 </v>
  </varray>
  <energy>
   <i name="e_fr_energy">  -1121.55403568 </i>
   <i name="e_wo_entrp">  -1121.55403568 </i>
   <i name="e_0_energy">     -0.00000000 </i>
  </energy>
  <time name="totalsc"> 1053.07 1055.23</time>
 </calculation>
 <calculation>
  <scstep>
   <time name="dav">  289.33  289.37</time>
   <time name="total">  293.05  293.15</time>
   <energy>
    <i name="alphaZ">   5619.02005538 </i>
    <i name="ewald"> -61439.18991485 </i>
    <i name="hartreedc"> -16056.60190482 </i>
    <i name="XCdc">   2962.88217888 </i>
    <i name="pawpsdc"> 113571.88154975 </i>
    <i name="pawaedc">-112472.03161477 </i>
    <i name="eentropy">     -0.00000000 </i>
    <i name="bandstr">  -7090.97281049 </i>
    <i name="atom">  73783.44779670 </i>
    <i name="e_fr_energy">  -1121.56466422 </i>
    <i name="e_wo_entrp">  -1121.56466422 </i>
    <i name="e_0_energy">  -1121.56466422 </i>
   </energy>
  </scstep>
  <scstep>
   <time name="diag">   33.26   33.26</time>
   <time name="diis">   51.98   51.98</time>
   <time name="orth">   18.88   18.88</time>
   <time name="total">  107.87  107.92</time>
   <energy>
    <i name="e_fr_energy">  -1121.56574988 </i>
    <i name="e_wo_entrp">  -1121.56574988 </i>
    <i name="e_0_energy">  -1121.56574988 </i>
   </energy>
  </scstep>
  <scstep>
   <time name="diag">   33.29   33.29</time>
   <time name="diis">   54.36   54.37</time>
   <time name="orth">   18.90   18.90</time>
   <time name="total">  110.30  110.38</time>
   <energy>
    <i name="e_fr_energy">  -1121.56419706 </i>
    <i name="e_wo_entrp">  -1121.56419706 </i>
    <i name="e_0_energy">  -1121.56419706 </i>
   </energy>
  </scstep>
  <scstep>
   <time name="diag">   33.26   33.29</time>
   <time name="diis">   55.25   55.25</time>
   <time name="orth">   18.84   18.84</time>
   <time name="total">  111.11  111.19</time>
   <energy>
    <i name="e_fr_energy">  -1121.56349137 </i>
    <i name="e_wo_entrp">  -1121.56349137 </i>
    <i name="e_0_energy">  -1121.56349137 </i>
   </energy>
  </scstep>
  <scstep>
   <time name="diag">   33.24   33.27</time>
   <time name="diis">   49.02   49.02</time>
   <time name="orth">   18.87   18.86</time>
   <time name="total">  104.87  104.99</time>
   <energy>
    <i name="e_fr_energy">  -1121.56327235 </i>
    <i name="e_wo_entrp">  -1121.56327235 </i>
    <i name="e_0_energy">  -1121.56327235 </i>
   </energy>
  </scstep>
  <scstep>
   <time name="diag">   33.25   33.28</time>
   <time name="diis">   34.72   34.72</time>
   <time name="orth">   18.91   18.90</time>
   <time name="total">   90.63   90.72</time>
   <energy>
    <i name="e_fr_energy">  -1121.56327246 </i>
    <i name="e_wo_entrp">  -1121.56327246 </i>
    <i name="e_0_energy">  -1121.56327246 </i>
   </energy>
  </scstep>
  <scstep>
   <time name="diag">   33.26   33.26</time>
   <time name="diis">   32.53   32.54</time>
   <time name="orth">   18.86   18.85</time>
   <time name="total">   88.39   88.48</time>
   <energy>
    <i name="e_fr_energy">  -1121.56326636 </i>
    <i name="e_wo_entrp">  -1121.56326636 </i>
    <i name="e_0_energy">  -1121.56326636 </i>
   </energy>
  </scstep>
  <scstep>
   <time name="diag">   33.23   33.24</time>
   <time name="diis">   32.14   32.15</time>
   <time name="orth">   18.87   18.88</time>
   <time name="total">   84.84   84.87</time>
   <energy>
    <i name="alphaZ">   5619.02005538 </i>
    <i name="ewald"> -61439.18991485 </i>
    <i name="hartreedc"> -16071.28279647 </i>
    <i name="XCdc">   2963.90341400 </i>
    <i name="pawpsdc"> 113344.13697067 </i>
    <i name="pawaedc">-112244.16233283 </i>
    <i name="eentropy">     -0.00000000 </i>
    <i name="bandstr">  -7077.43645242 </i>
    <i name="atom">  73783.44779670 </i>
    <i name="e_fr_energy">  -1121.56325982 </i>
    <i name="e_wo_entrp">  -1121.56325982 </i>
    <i name="e_0_energy">  -1121.56325982 </i>
   </energy>
  </scstep>
  <structure>
   <crystal>
    <varray name="basis" >
     <v>      11.23645877       0.00379301      -0.00166598 </v>
     <v>       0.00382719      11.26503473       0.00062176 </v>
     <v>      -0.00238035       0.00084834      15.86692459 </v>
    </varray>
    <i name="volume">   2008.42072579 </i>
    <varray name="rec_basis" >
     <v>       0.08899602      -0.00003024       0.00001335 </v>
     <v>      -0.00002997       0.08877026      -0.00000475 </v>
     <v>       0.00000935      -0.00000348       0.06302419 </v>
    </varray>
   </crystal>
   <varray name="positions" >
    <v>       0.99276632       0.24565325       0.11827073 </v>
    <v>       0.99818942       0.24986909       0.62362688 </v>
    <v>       0.99276632       0.74565325       0.11827073 </v>
    <v>       0.99818942       0.74986909       0.62362688 </v>
    <v>       0.50341581       0.24926193       0.12298501 </v>
    <v>       0.50166169       0.25000285       0.62203255 </v>
    <v>       0.50341581       0.74926193       0.12298501 </v>
    <v>       0.50166169       0.75000285       0.62203255 </v>
    <v>       0.98977512       0.24636250       0.38466817 </v>
    <v>       0.99994247       0.24979577       0.87328764 </v>
    <v>       0.98977512       0.74636250       0.38466817 </v>
    <v>       0.99994247       0.74979577       0.87328764 </v>
    <v>       0.50554459       0.24904193       0.37833809 </v>
    <v>       0.50046057       0.25019561       0.87445407 </v>
    <v>       0.50554459       0.74904193       0.37833809 </v>
    <v>       0.50046057       0.75019561       0.87445407 </v>
    <v>       0.24640965       0.00353209       0.11501444 </v>
    <v>       0.25068507       0.99875779       0.62452042 </v>
    <v>       0.24640965       0.50353209       0.11501444 </v>
    <v>       0.25068507       0.49875779       0.62452042 </v>
    <v>       0.75229537       0.00163765       0.12283520 </v>
    <v>       0.75003630       0.99966875       0.62170541 </v>
    <v>       0.75229537       0.50163765       0.12283520 </v>
    <v>       0.75003630       0.49966875       0.62170541 </v>
    <v>       0.24550335       0.00367736       0.38634221 </v>
    <v>       0.25078525       0.99883767       0.87305660 </v>
    <v>       0.24550335       0.50367736       0.38634221 </v>
    <v>       0.25078525       0.49883767       0.87305660 </v>
    <v>       0.75218084       0.00155289       0.38004730 </v>
    <v>       0.75051994       0.99942545       0.87412977 </v>
    <v>       0.75218084       0.50155289       0.38004730 </v>
    <v>       0.75051994       0.49942545       0.87412977 </v>
    <v>       0.99941288       0.99980524       0.00073998 </v>
    <v>       0.99941288       0.49980524       0.00073998 </v>
    <v>       0.99669408       0.50015417       0.49894947 </v>
    <v>       0.49967732       0.00022174       0.00257251 </v>
    <v>       0.50116731       0.00052950       0.49636726 </v>
    <v>       0.49967732       0.50022174       0.00257251 </v>
    <v>       0.50116731       0.50052950       0.49636726 </v>
    <v>       0.24901519       0.24901213      -0.00010742 </v>
    <v>       0.24871182       0.24898596       0.49874319 </v>
    <v>       0.24901519       0.74901213      -0.00010742 </v>
    <v>       0.00007230       0.49822943       0.74945069 </v>
    <v>       0.00007230       0.99822943       0.74945069 </v>
    <v>       0.24871182       0.74898596       0.49874319 </v>
    <v>       0.74935495       0.25042917       0.74823393 </v>
    <v>       0.49965782       0.49915538       0.74919923 </v>
    <v>       0.99669408       0.00015417       0.49894947 </v>
    <v>       0.75245179       0.74274269       0.25198959 </v>
    <v>       0.75245179       0.24274269       0.25198959 </v>
    <v>       0.74916471       0.24988310       0.99977669 </v>
    <v>       0.74935495       0.75042917       0.74823393 </v>
    <v>       0.49965782       0.99915538       0.74919923 </v>
    <v>       0.74916471       0.74988310       0.99977669 </v>
    <v>       0.25018190       0.25050968       0.74883612 </v>
    <v>       0.25018190       0.75050968       0.74883612 </v>
    <v>       0.74808843       0.74992686       0.50052811 </v>
    <v>       0.52219827       0.99055022       0.25004130 </v>
    <v>       0.74808843       0.24992686       0.50052811 </v>
    <v>       0.98922136       0.98600560       0.25041205 </v>
    <v>       0.98922136       0.48600560       0.25041205 </v>
    <v>       0.25356322       0.79156950       0.25053028 </v>
    <v>       0.52219827       0.49055022       0.25004130 </v>
    <v>       0.25356322       0.29156950       0.25053028 </v>
    <v>       0.00372243       0.01307562       0.12544282 </v>
    <v>       0.00262501       0.99175186       0.62558209 </v>
    <v>       0.00372243       0.51307562       0.12544282 </v>
    <v>       0.00262501       0.49175186       0.62558209 </v>
    <v>       0.49182117       0.01184697       0.12815588 </v>
    <v>       0.49356188       0.99584578       0.62427123 </v>
    <v>       0.49182117       0.51184697       0.12815588 </v>
    <v>       0.49356188       0.49584578       0.62427123 </v>
    <v>       0.00381544       0.01402733       0.37382977 </v>
    <v>       0.00197059       0.99260118       0.87565451 </v>
    <v>       0.00381544       0.51402733       0.37382977 </v>
    <v>       0.00197059       0.49260118       0.87565451 </v>
    <v>       0.48996775       0.01322341       0.37060888 </v>
    <v>       0.49424411       0.99585961       0.87701304 </v>
    <v>       0.48996775       0.51322341       0.37060888 </v>
    <v>       0.49424411       0.49585961       0.87701304 </v>
    <v>       0.23732728       0.22743970       0.36131283 </v>
    <v>       0.24933712       0.25606767       0.87719750 </v>
    <v>       0.23732728       0.72743970       0.36131283 </v>
    <v>       0.24933712       0.75606767       0.87719750 </v>
    <v>       0.75177389       0.24404119       0.37454475 </v>
    <v>       0.74696999       0.25475462       0.87550791 </v>
    <v>       0.75177389       0.74404119       0.37454475 </v>
    <v>       0.74696999       0.75475462       0.87550791 </v>
    <v>       0.23735829       0.22654585       0.13971944 </v>
    <v>       0.24915951       0.25625430       0.62378017 </v>
    <v>       0.23735829       0.72654585       0.13971944 </v>
    <v>       0.24915951       0.75625430       0.62378017 </v>
    <v>       0.75228184       0.24490833       0.12365452 </v>
    <v>       0.74635022       0.25444382       0.62653129 </v>
    <v>       0.75228184       0.74490833       0.12365452 </v>
    <v>       0.74635022       0.75444382       0.62653129 </v>
    <v>       0.60550197       0.14654852       0.24895339 </v>
    <v>       0.85959303       0.10312731       0.24918738 </v>
    <v>       0.15829817       0.43035868       0.24997558 </v>
    <v>       0.40716191       0.35386874       0.24978855 </v>
    <v>       0.66005542       0.39518000       0.24981509 </v>
    <v>       0.90668650       0.34095994       0.24975318 </v>
    <v>       0.60550197       0.64654852       0.24895339 </v>
    <v>       0.85959303       0.60312731       0.24918738 </v>
    <v>       0.15829817       0.93035868       0.24997558 </v>
    <v>       0.40716191       0.85386874       0.24978855 </v>
    <v>       0.66005542       0.89518000       0.24981509 </v>
    <v>       0.90668650       0.84095994       0.24975318 </v>
    <v>       0.13490522       0.11469462       0.50521930 </v>
    <v>       0.38063820       0.13444927       0.49998616 </v>
    <v>       0.63110163       0.11436691       0.50172023 </v>
    <v>       0.88476004       0.13268161       0.50576897 </v>
    <v>       0.11599557       0.36352716       0.49256273 </v>
    <v>       0.36304240       0.38067799       0.49192463 </v>
    <v>       0.61209637       0.36776553       0.49520666 </v>
    <v>       0.86719020       0.38490595       0.49627545 </v>
    <v>       0.13490522       0.61469462       0.50521930 </v>
    <v>       0.38063820       0.63444927       0.49998616 </v>
    <v>       0.63110163       0.61436691       0.50172023 </v>
    <v>       0.88476004       0.63268161       0.50576897 </v>
    <v>       0.11599557       0.86352716       0.49256273 </v>
    <v>       0.36304240       0.88067799       0.49192463 </v>
    <v>       0.61209637       0.86776553       0.49520666 </v>
    <v>       0.86719020       0.88490595       0.49627545 </v>
    <v>       0.11093638       0.13915667       0.75036773 </v>
    <v>       0.35896340       0.11103620       0.75060369 </v>
    <v>       0.60893955       0.13869657       0.75091582 </v>
    <v>       0.86072801       0.10979714       0.75047594 </v>
    <v>       0.14083699       0.38920900       0.75087223 </v>
    <v>       0.38940540       0.35905162       0.75065287 </v>
    <v>       0.63865618       0.39107446       0.75088339 </v>
    <v>       0.88979540       0.35902509       0.75089322 </v>
    <v>       0.11093638       0.63915667       0.75036773 </v>
    <v>       0.35896340       0.61103620       0.75060369 </v>
    <v>       0.60893955       0.63869657       0.75091582 </v>
    <v>       0.86072801       0.60979714       0.75047594 </v>
    <v>       0.14083699       0.88920900       0.75087223 </v>
    <v>       0.38940540       0.85905162       0.75065287 </v>
    <v>       0.63865618       0.89107446       0.75088339 </v>
    <v>       0.88979540       0.85902509       0.75089322 </v>
    <v>       0.13696691       0.11266290       0.99536396 </v>
    <v>       0.38361882       0.13612972       0.00049834 </v>
    <v>       0.63562889       0.11244929       0.99847587 </v>
    <v>       0.88651151       0.13638174       0.99500386 </v>
    <v>       0.11424110       0.36169905       0.00786561 </v>
    <v>       0.36247161       0.38196632       0.00837525 </v>
    <v>       0.61201094       0.36431849       0.00446914 </v>
    <v>       0.86417063       0.38656328       0.00376166 </v>
    <v>       0.13696691       0.61266290       0.99536396 </v>
    <v>       0.38361882       0.63612972       0.00049834 </v>
    <v>       0.63562889       0.61244929       0.99847587 </v>
    <v>       0.88651151       0.63638174       0.99500386 </v>
    <v>       0.11424110       0.86169905       0.00786561 </v>
    <v>       0.36247161       0.88196632       0.00837525 </v>
    <v>       0.61201094       0.86431849       0.00446914 </v>
    <v>       0.86417063       0.88656328       0.00376166 </v>
   </varray>
  </structure>
  <varray name="forces" >
   <v>       0.03037834       0.01396023      -0.01935549 </v>
   <v>      -0.00285853       0.00272904      -0.01068604 </v>
   <v>       0.03037834       0.01396023      -0.01935549 </v>
   <v>      -0.00285853       0.00272904      -0.01068604 </v>
   <v>       0.00904949      -0.01836131       0.03179709 </v>
   <v>      -0.00457893       0.00175412      -0.00185010 </v>
   <v>       0.00904949      -0.01836131       0.03179709 </v>
   <v>      -0.00457893       0.00175412      -0.00185010 </v>
   <v>       0.01002669       0.02108751       0.03297788 </v>
   <v>       0.02187258      -0.00262015       0.01405925 </v>
   <v>       0.01002669       0.02108751       0.03297788 </v>
   <v>       0.02187258      -0.00262015       0.01405925 </v>
   <v>       0.02677668      -0.01769898      -0.01400301 </v>
   <v>      -0.01952078      -0.00317604       0.00967492 </v>
   <v>       0.02677668      -0.01769898      -0.01400301 </v>
   <v>      -0.01952078      -0.00317604       0.00967492 </v>
   <v>       0.00010830       0.00113058      -0.00191720 </v>
   <v>      -0.01485449       0.01123100       0.00114623 </v>
   <v>       0.00010830       0.00113058      -0.00191720 </v>
   <v>      -0.01485449       0.01123100       0.00114623 </v>
   <v>      -0.00086185      -0.00931269       0.02735377 </v>
   <v>      -0.02341672       0.00460742       0.00755452 </v>
   <v>      -0.00086185      -0.00931269       0.02735377 </v>
   <v>      -0.02341672       0.00460742       0.00755452 </v>
   <v>      -0.00946009      -0.00959900      -0.00998149 </v>
   <v>      -0.00339853       0.01403197       0.01334972 </v>
   <v>      -0.00946009      -0.00959900      -0.00998149 </v>
   <v>      -0.00339853       0.01403197       0.01334972 </v>
   <v>      -0.00406022      -0.01195252      -0.00764921 </v>
   <v>      -0.02583592       0.00608676      -0.00931070 </v>
   <v>      -0.00406022      -0.01195252      -0.00764921 </v>
   <v>      -0.02583592       0.00608676      -0.00931070 </v>
   <v>       0.08247623       0.03188752      -0.01578691 </v>
   <v>       0.08247623       0.03188752      -0.01578691 </v>
   <v>       0.01025969       0.00055086       0.01840347 </v>
   <v>      -0.07646010       0.01647966       0.01269756 </v>
   <v>       0.00295918      -0.00482097      -0.00687802 </v>
   <v>      -0.07646010       0.01647966       0.01269756 </v>
   <v>       0.00295918      -0.00482097      -0.00687802 </v>
   <v>      -0.00399403      -0.03132615       0.01099235 </v>
   <v>      -0.05073458       0.00240197       0.00434148 </v>
   <v>      -0.00399403      -0.03132615       0.01099235 </v>
   <v>      -0.01598659      -0.00608204      -0.02456120 </v>
   <v>      -0.01598659      -0.00608204      -0.02456120 </v>
   <v>      -0.05073458       0.00240197       0.00434148 </v>
   <v>      -0.00388987       0.01776245      -0.04894362 </v>
   <v>       0.02144547       0.00020056       0.00252109 </v>
   <v>       0.01025969       0.00055086       0.01840347 </v>
   <v>      -0.00076298       0.00020622       0.03939015 </v>
   <v>      -0.00076298       0.00020622       0.03939015 </v>
   <v>      -0.00540309       0.00358596      -0.02894121 </v>
   <v>      -0.00388987       0.01776245      -0.04894362 </v>
   <v>       0.02144547       0.00020056       0.00252109 </v>
   <v>      -0.00540309       0.00358596      -0.02894121 </v>
   <v>      -0.02426750      -0.00214190       0.00942566 </v>
   <v>      -0.02426750      -0.00214190       0.00942566 </v>
   <v>       0.00513020      -0.00000952       0.01187671 </v>
   <v>      -0.00602498      -0.05044950       0.01081461 </v>
   <v>       0.00513020      -0.00000952       0.01187671 </v>
   <v>       0.01994556      -0.04352100       0.01661162 </v>
   <v>       0.01994556      -0.04352100       0.01661162 </v>
   <v>      -0.00540635       0.00516368      -0.00993193 </v>
   <v>      -0.00602498      -0.05044950       0.01081461 </v>
   <v>      -0.00540635       0.00516368      -0.00993193 </v>
   <v>      -0.01896395      -0.01299609       0.00103284 </v>
   <v>      -0.01956662       0.04441948       0.04905323 </v>
   <v>      -0.01896395      -0.01299609       0.00103284 </v>
   <v>      -0.01956662       0.04441948       0.04905323 </v>
[...]
       <r>   -16.1940     0.0000    32.0000 </r>
       <r>   -16.0419     0.0000    32.0000 </r>
       <r>   -15.8899     0.0000    32.0000 </r>
       <r>   -15.7378     0.0000    32.0000 </r>
       <r>   -15.5857     0.0000    32.0000 </r>
       <r>   -15.4337     0.0000    32.0000 </r>
       <r>   -15.2816     0.0013    32.0002 </r>
       <r>   -15.1296     5.6568    32.8604 </r>
       <r>   -14.9775    33.7497    37.9924 </r>
       <r>   -14.8254    52.2070    45.9312 </r>
       <r>   -14.6734    38.9705    51.8571 </r>
       <r>   -14.5213    33.0571    56.8838 </r>
       <r>   -14.3692    30.3980    61.5062 </r>
       <r>   -14.2172    62.2239    70.9681 </r>
       <r>   -14.0651   107.5660    87.3248 </r>
       <r>   -13.9131   139.7927   108.5820 </r>
       <r>   -13.7610    67.4878   118.8443 </r>
       <r>   -13.6089    33.2562   123.9013 </r>
       <r>   -13.4569     0.6488   124.0000 </r>
       <r>   -13.3048     0.0000   124.0000 </r>
       <r>   -13.1527     0.0000   124.0000 </r>
       <r>   -13.0007     0.0000   124.0000 </r>
       <r>   -12.8486     0.0000   124.0000 </r>
       <r>   -12.6966     1.6281   124.2476 </r>
       <r>   -12.5445    52.6597   132.2551 </r>
       <r>   -12.3924   172.5680   158.4962 </r>
       <r>   -12.2404   139.3799   179.6906 </r>
       <r>   -12.0883   135.5141   200.2971 </r>
       <r>   -11.9362    85.3029   213.2685 </r>
       <r>   -11.7842    34.0077   218.4398 </r>
       <r>   -11.6321    10.2579   219.9996 </r>
       <r>   -11.4801     0.0026   220.0000 </r>
       <r>   -11.3280     0.0000   220.0000 </r>
       <r>   -11.1759     0.0000   220.0000 </r>
       <r>   -11.0239     0.0000   220.0000 </r>
       <r>   -10.8718     0.0000   220.0000 </r>
       <r>   -10.7197     0.0000   220.0000 </r>
       <r>   -10.5677     0.0000   220.0000 </r>
       <r>   -10.4156     0.0000   220.0000 </r>
       <r>   -10.2636     0.0000   220.0000 </r>
       <r>   -10.1115     0.0000   220.0000 </r>
       <r>    -9.9594     0.0000   220.0000 </r>
       <r>    -9.8074     0.0000   220.0000 </r>
       <r>    -9.6553     0.0000   220.0000 </r>
       <r>    -9.5033     0.0000   220.0000 </r>
       <r>    -9.3512     0.0000   220.0000 </r>
       <r>    -9.1991     0.0000   220.0000 </r>
       <r>    -9.0471     0.0000   220.0000 </r>
       <r>    -8.8950     0.0000   220.0000 </r>
       <r>    -8.7429     0.0000   220.0000 </r>
       <r>    -8.5909     0.0000   220.0000 </r>
       <r>    -8.4388     0.0000   220.0000 </r>
       <r>    -8.2868     0.0000   220.0000 </r>
       <r>    -8.1347     0.0000   220.0000 </r>
       <r>    -7.9826     0.0000   220.0000 </r>
       <r>    -7.8306     0.0000   220.0000 </r>
       <r>    -7.6785     0.0000   220.0000 </r>
       <r>    -7.5264     0.0000   220.0000 </r>
       <r>    -7.3744     0.0000   220.0000 </r>
       <r>    -7.2223     0.0000   220.0000 </r>
       <r>    -7.0703     0.0000   220.0000 </r>
       <r>    -6.9182     0.0000   220.0000 </r>
       <r>    -6.7661     0.0000   220.0000 </r>
       <r>    -6.6141     0.0000   220.0000 </r>
       <r>    -6.4620     0.0000   220.0000 </r>
       <r>    -6.3099     0.0000   220.0000 </r>
       <r>    -6.1579     0.0000   220.0000 </r>
       <r>    -6.0058     0.0000   220.0000 </r>
       <r>    -5.8538     0.0000   220.0000 </r>
       <r>    -5.7017     0.0000   220.0000 </r>
       <r>    -5.5496     0.0000   220.0000 </r>
       <r>    -5.3976     0.0000   220.0000 </r>
       <r>    -5.2455     0.0000   220.0000 </r>
       <r>    -5.0935     0.0000   220.0000 </r>
       <r>    -4.9414     0.0000   220.0000 </r>
       <r>    -4.7893     0.0000   220.0000 </r>
       <r>    -4.6373     0.0000   220.0000 </r>
       <r>    -4.4852     0.0000   220.0000 </r>
       <r>    -4.3331     0.0000   220.0000 </r>
       <r>    -4.1811     0.0000   220.0000 </r>
       <r>    -4.0290     0.0000   220.0000 </r>
       <r>    -3.8770     0.0000   220.0000 </r>
       <r>    -3.7249     0.0000   220.0000 </r>
       <r>    -3.5728     0.0000   220.0000 </r>
       <r>    -3.4208     0.0000   220.0000 </r>
       <r>    -3.2687     0.0000   220.0000 </r>
       <r>    -3.1166     0.0000   220.0000 </r>
       <r>    -2.9646     0.0000   220.0000 </r>
       <r>    -2.8125     0.0000   220.0000 </r>
       <r>    -2.6605     0.0000   220.0000 </r>
       <r>    -2.5084     0.0000   220.0000 </r>
       <r>    -2.3563     1.8537   220.2819 </r>
       <r>    -2.2043    13.9051   222.3963 </r>
       <r>    -2.0522    21.4303   225.6550 </r>
       <r>    -1.9001    38.8260   231.5590 </r>
       <r>    -1.7481    46.7765   238.6719 </r>
       <r>    -1.5960    54.1834   246.9112 </r>
       <r>    -1.4440    50.2464   254.5518 </r>
       <r>    -1.2919    58.1561   263.3951 </r>
       <r>    -1.1398    67.7973   273.7045 </r>
       <r>    -0.9878    79.0943   285.7317 </r>
       <r>    -0.8357    72.2980   296.7255 </r>
       <r>    -0.6836    98.4726   311.6995 </r>
       <r>    -0.5316   112.9824   328.8798 </r>
       <r>    -0.3795    95.0542   343.3340 </r>
       <r>    -0.2275    60.4821   352.5310 </r>
       <r>    -0.0754    42.4341   358.9836 </r>
       <r>     0.0767    56.0472   367.5063 </r>
       <r>     0.2287    50.6100   375.2021 </r>
       <r>     0.3808    53.4313   383.3270 </r>
       <r>     0.5328    54.4947   391.6136 </r>
       <r>     0.6849    49.8306   399.1909 </r>
       <r>     0.8370    48.7167   406.5989 </r>
       <r>     0.9890    53.4820   414.7315 </r>
       <r>     1.1411    74.6467   426.0824 </r>
       <r>     1.2932    87.5866   439.4010 </r>
       <r>     1.4452    93.5428   453.6253 </r>
       <r>     1.5973    87.0414   466.8610 </r>
       <r>     1.7493    79.6894   478.9788 </r>
       <r>     1.9014    38.1228   484.7758 </r>
       <r>     2.0535    40.9058   490.9960 </r>
       <r>     2.2055    29.6393   495.5031 </r>
       <r>     2.3576     3.2681   496.0000 </r>
       <r>     2.5097     0.0000   496.0000 </r>
       <r>     2.6617     0.0000   496.0000 </r>
       <r>     2.8138     0.0000   496.0000 </r>
       <r>     2.9658     0.0000   496.0000 </r>
       <r>     3.1179     0.0000   496.0000 </r>
       <r>     3.2700     0.0000   496.0000 </r>
       <r>     3.4220     0.0000   496.0000 </r>
       <r>     3.5741     0.0000   496.0000 </r>
       <r>     3.7262     0.0000   496.0000 </r>
       <r>     3.8782     0.0000   496.0000 </r>
       <r>     4.0303     0.0000   496.0000 </r>
       <r>     4.1823     0.0000   496.0000 </r>
       <r>     4.3344     0.0008   496.0001 </r>
       <r>     4.4865     6.0203   496.9156 </r>
       <r>     4.6385    33.4116   501.9962 </r>
       <r>     4.7906    51.5783   509.8393 </r>
       <r>     4.9426    30.3084   514.4481 </r>
       <r>     5.0947    41.2380   520.7188 </r>
       <r>     5.2468    54.7016   529.0369 </r>
       <r>     5.3988    76.6329   540.6898 </r>
       <r>     5.5509    57.5131   549.4354 </r>
       <r>     5.7030    61.3756   558.7683 </r>
       <r>     5.8550    93.6630   573.0109 </r>
       <r>     6.0071    95.8126   587.5804 </r>
       <r>     6.1591    72.5697   598.6155 </r>
       <r>     6.3112    59.5519   607.6711 </r>
       <r>     6.4633    31.9255   612.5257 </r>
       <r>     6.6153    20.0239   615.5706 </r>
       <r>     6.7674    22.2364   618.9519 </r>
       <r>     6.9195    25.0451   622.7603 </r>
       <r>     7.0715    15.8028   625.1633 </r>
       <r>     7.2236    17.5874   627.8377 </r>
       <r>     7.3756    11.7295   629.6213 </r>
       <r>     7.5277    10.1155   631.1595 </r>
       <r>     7.6798    14.4886   633.3627 </r>
       <r>     7.8318    20.4648   636.4746 </r>
       <r>     7.9839    22.9699   639.9675 </r>
       <r>     8.1360    22.9271   643.4538 </r>
       <r>     8.2880    35.8475   648.9049 </r>
       <r>     8.4401    22.9587   652.3960 </r>
       <r>     8.5921    18.0900   655.1468 </r>
       <r>     8.7442    16.0118   657.5816 </r>
       <r>     8.8963    30.1346   662.1639 </r>
       <r>     9.0483    32.7754   667.1478 </r>
       <r>     9.2004    47.1567   674.3186 </r>
       <r>     9.3525    34.3038   679.5349 </r>
       <r>     9.5045    37.7112   685.2693 </r>
       <r>     9.6566    49.5963   692.8110 </r>
       <r>     9.8086    56.5844   701.4154 </r>
       <r>     9.9607    69.2913   711.9519 </r>
       <r>    10.1128    67.5161   722.2186 </r>
       <r>    10.2648    64.4440   732.0181 </r>
       <r>    10.4169    57.3191   740.7341 </r>
       <r>    10.5689    61.1355   750.0305 </r>
       <r>    10.7210    49.4598   757.5515 </r>
       <r>    10.8731    51.5232   765.3862 </r>
       <r>    11.0251    17.1812   767.9988 </r>
       <r>    11.1772     0.0076   768.0000 </r>
       <r>    11.3293     0.0000   768.0000 </r>
       <r>    11.4813     0.0000   768.0000 </r>
       <r>    11.6334     0.0000   768.0000 </r>
       <r>    11.7854     0.0000   768.0000 </r>
       <r>    11.9375     0.0000   768.0000 </r>
       <r>    12.0896     0.0000   768.0000 </r>
       <r>    12.2416     0.0000   768.0000 </r>
       <r>    12.3937     0.0000   768.0000 </r>
       <r>    12.5458     0.0000   768.0000 </r>
       <r>    12.6978     0.0000   768.0000 </r>
       <r>    12.8499     0.0000   768.0000 </r>
       <r>    13.0019     0.0000   768.0000 </r>
      </set>
     </set>
    </array>
   </total>
  </dos>
 </calculation>
 <structure name="finalpos" >
  <crystal>
   <varray name="basis" >
    <v>      11.23325872       0.00434010      -0.00182347 </v>
    <v>       0.00437817      11.26154501       0.00056481 </v>
    <v>      -0.00259919       0.00076753      15.87695286 </v>
   </varray>
   <i name="volume">   2008.49528229 </i>
   <varray name="rec_basis" >
    <v>       0.08902138      -0.00003461       0.00001458 </v>
    <v>      -0.00003431       0.08879778      -0.00000430 </v>
    <v>       0.00001023      -0.00000316       0.06298438 </v>
   </varray>
  </crystal>
  <varray name="positions" >
   <v>       0.99441774       0.24569479       0.11641171 </v>
   <v>       0.99688074       0.25010375       0.62396515 </v>
   <v>       0.99441774       0.74569479       0.11641171 </v>
   <v>       0.99688074       0.75010375       0.62396515 </v>
   <v>       0.50619120       0.24760973       0.12382663 </v>
   <v>       0.50081836       0.25012821       0.62179496 </v>
   <v>       0.50619120       0.74760973       0.12382663 </v>
   <v>       0.50081836       0.75012821       0.62179496 </v>
   <v>       0.99138732       0.24666479       0.38644527 </v>
   <v>      -0.00076711       0.24985365       0.87312594 </v>
   <v>       0.99138732       0.74666479       0.38644527 </v>
   <v>      -0.00076711       0.74985365       0.87312594 </v>
   <v>       0.50797756       0.24748004       0.37793257 </v>
   <v>       0.49955411       0.25006730       0.87487212 </v>
   <v>       0.50797756       0.74748004       0.37793257 </v>
   <v>       0.49955411       0.75006730       0.87487212 </v>
   <v>       0.24651717       0.00532975       0.11393031 </v>
   <v>       0.24912384       0.99957215       0.62447454 </v>
   <v>       0.24651717       0.50532975       0.11393031 </v>
   <v>       0.24912384       0.49957215       0.62447454 </v>
   <v>       0.75334524       0.00064274       0.12293675 </v>
   <v>       0.74856956       0.00033990       0.62188359 </v>
   <v>       0.75334524       0.50064274       0.12293675 </v>
   <v>       0.74856956       0.50033990       0.62188359 </v>
   <v>       0.24525077       0.00536113       0.38733779 </v>
   <v>       0.24972553       0.99936506       0.87318048 </v>
   <v>       0.24525077       0.50536113       0.38733779 </v>
   <v>       0.24972553       0.49936506       0.87318048 </v>
   <v>       0.75303549       0.00074254       0.37996294 </v>
   <v>       0.74891742       0.00054360       0.87413755 </v>
   <v>       0.75303549       0.50074254       0.37996294 </v>
   <v>       0.74891742       0.50054360       0.87413755 </v>
   <v>       0.99916373      -0.00010016       0.00006046 </v>
   <v>       0.99916373       0.49989984       0.00006046 </v>
   <v>       0.99598767       0.50033261       0.49960691 </v>
   <v>       0.49925462       0.00014920       0.00305026 </v>
   <v>       0.50092740       0.00041522       0.49608616 </v>
   <v>       0.49925462       0.50014920       0.00305026 </v>
   <v>       0.50092740       0.50041522       0.49608616 </v>
   <v>       0.24923863       0.24967468      -0.00025592 </v>
   <v>       0.24857040       0.24980150       0.49928540 </v>
   <v>       0.24923863       0.74967468      -0.00025592 </v>
   <v>      -0.00095552       0.49913922       0.74954603 </v>
   <v>      -0.00095552       0.99913922       0.74954603 </v>
   <v>       0.24857040       0.74980150       0.49928540 </v>
   <v>       0.74823670       0.25081315       0.74819506 </v>
   <v>       0.49896021       0.49956651       0.74926676 </v>
   <v>       0.99598767       0.00033261       0.49960691 </v>
   <v>       0.75555048       0.74075354       0.25193951 </v>
   <v>       0.75555048       0.24075354       0.25193951 </v>
   <v>       0.74906234       0.24983955       0.99961162 </v>
   <v>       0.74823670       0.75081315       0.74819506 </v>
   <v>       0.49896021       0.99956651       0.74926676 </v>
   <v>       0.74906234       0.74983955       0.99961162 </v>
   <v>       0.24984052       0.25031552       0.74905798 </v>
   <v>       0.24984052       0.75031552       0.74905798 </v>
   <v>       0.74802024       0.74988058       0.50061650 </v>
   <v>       0.52316884       0.98751057       0.25016497 </v>
   <v>       0.74802024       0.24988058       0.50061650 </v>
   <v>       0.99130828       0.98387284       0.25041648 </v>
   <v>       0.99130828       0.48387284       0.25041648 </v>
   <v>       0.25339206       0.79412857       0.25045275 </v>
   <v>       0.52316884       0.48751057       0.25016497 </v>
   <v>       0.25339206       0.29412857       0.25045275 </v>
   <v>       0.00304544       0.00889092       0.12453095 </v>
   <v>       0.00181823       0.99473946       0.62627931 </v>
   <v>       0.00304544       0.50889092       0.12453095 </v>
   <v>       0.00181823       0.49473946       0.62627931 </v>
   <v>       0.49017614       0.01004563       0.12892785 </v>
   <v>       0.49417858       0.99714565       0.62403082 </v>
   <v>       0.49017614       0.51004563       0.12892785 </v>
   <v>       0.49417858       0.49714565       0.62403082 </v>
   <v>       0.00296163       0.00989454       0.37457572 </v>
   <v>       0.00121519       0.99605089       0.87494605 </v>
   <v>       0.00296163       0.50989454       0.37457572 </v>
   <v>       0.00121519       0.49605089       0.87494605 </v>
   <v>       0.48917776       0.01218638       0.36996792 </v>
   <v>       0.49479111       0.99798737       0.87735939 </v>
   <v>       0.48917776       0.51218638       0.36996792 </v>
   <v>       0.49479111       0.49798737       0.87735939 </v>
   <v>       0.23355852       0.23085209       0.36107079 </v>
   <v>       0.25072309       0.25278411       0.87676682 </v>
   <v>       0.23355852       0.73085209       0.36107079 </v>
   <v>       0.25072309       0.75278411       0.87676682 </v>
   <v>       0.75394779       0.24383495       0.37427060 </v>
   <v>       0.74513776       0.25285862       0.87555426 </v>
   <v>       0.75394779       0.74383495       0.37427060 </v>
   <v>       0.74513776       0.75285862       0.87555426 </v>
   <v>       0.23426202       0.23034417       0.13944850 </v>
   <v>       0.25090924       0.25375859       0.62412161 </v>
   <v>       0.23426202       0.73034417       0.13944850 </v>
   <v>       0.25090924       0.75375859       0.62412161 </v>
   <v>       0.75438557       0.24580113       0.12364473 </v>
   <v>       0.74509496       0.25388615       0.62662043 </v>
   <v>       0.75438557       0.74580113       0.12364473 </v>
   <v>       0.74509496       0.75388615       0.62662043 </v>
   <v>       0.60961338       0.14257448       0.24863812 </v>
   <v>       0.86157583       0.10021477       0.24889262 </v>
   <v>       0.16286311       0.43720086       0.24985180 </v>
   <v>       0.41007380       0.34837657       0.25011215 </v>
   <v>       0.66135269       0.39209906       0.24979641 </v>
   <v>       0.91185272       0.33696857       0.24972954 </v>
   <v>       0.60961338       0.64257448       0.24863812 </v>
   <v>       0.86157583       0.60021477       0.24889262 </v>
   <v>       0.16286311       0.93720086       0.24985180 </v>
   <v>       0.41007380       0.84837657       0.25011215 </v>
   <v>       0.66135269       0.89209906       0.24979641 </v>
   <v>       0.91185272       0.83696857       0.24972954 </v>
   <v>       0.13229392       0.11781364       0.50442624 </v>
   <v>       0.37916071       0.13393858       0.49835135 </v>
   <v>       0.62943812       0.11588334       0.50050281 </v>
   <v>       0.88276787       0.13168279       0.50549292 </v>
   <v>       0.11766970       0.36640546       0.49600973 </v>
   <v>       0.36360085       0.38081411       0.49296712 </v>
   <v>       0.61327204       0.36901730       0.49461232 </v>
   <v>       0.86810493       0.38344763       0.49833800 </v>
   <v>       0.13229392       0.61781364       0.50442624 </v>
   <v>       0.37916071       0.63393858       0.49835135 </v>
   <v>       0.62943812       0.61588334       0.50050281 </v>
   <v>       0.88276787       0.63168279       0.50549292 </v>
   <v>       0.11766970       0.86640546       0.49600973 </v>
   <v>       0.36360085       0.88081411       0.49296712 </v>
   <v>       0.61327204       0.86901730       0.49461232 </v>
   <v>       0.86810493       0.88344763       0.49833800 </v>
   <v>       0.11001272       0.13994691       0.75011267 </v>
   <v>       0.35784303       0.10973852       0.75044599 </v>
   <v>       0.60743003       0.13949100       0.75071947 </v>
   <v>       0.85939394       0.11036617       0.75032745 </v>
   <v>       0.14018657       0.38906770       0.75090981 </v>
   <v>       0.38939441       0.35884908       0.75079929 </v>
   <v>       0.63815919       0.39186245       0.75110075 </v>
   <v>       0.88879478       0.35971187       0.75113414 </v>
   <v>       0.11001272       0.63994691       0.75011267 </v>
   <v>       0.35784303       0.60973852       0.75044599 </v>
   <v>       0.60743003       0.63949100       0.75071947 </v>
   <v>       0.85939394       0.61036617       0.75032745 </v>
   <v>       0.14018657       0.88906770       0.75090981 </v>
   <v>       0.38939441       0.85884908       0.75079929 </v>
   <v>       0.63815919       0.89186245       0.75110075 </v>
   <v>       0.88879478       0.85971187       0.75113414 </v>
   <v>       0.13465819       0.11533105       0.99623592 </v>
   <v>       0.38260770       0.13620262       0.00234608 </v>
   <v>       0.63411486       0.11370004       0.00031597 </v>
   <v>       0.88468955       0.13532551       0.99533533 </v>
   <v>       0.11537797       0.36406790       0.00419758 </v>
   <v>       0.36240445       0.38267999       0.00689252 </v>
   <v>       0.61248613       0.36525815       0.00476706 </v>
   <v>       0.86475223       0.38531099       0.00120387 </v>
   <v>       0.13465819       0.61533105       0.99623592 </v>
   <v>       0.38260770       0.63620262       0.00234608 </v>
   <v>       0.63411486       0.61370004       0.00031597 </v>
   <v>       0.88468955       0.63532551       0.99533533 </v>
   <v>       0.11537797       0.86406790       0.00419758 </v>
   <v>       0.36240445       0.88267999       0.00689252 </v>
   <v>       0.61248613       0.86525815       0.00476706 </v>
   <v>       0.86475223       0.88531099       0.00120387 </v>
  </varray>
 </structure>
</modeling>
