       N       E                     dE             d eps       ncg     rms          rms(c)
DAV:   1    -0.112161325717E+04   -0.11216E+04   -0.86589E-02  6536   0.677E-01    0.251E-02
RMM:   2    -0.112161325808E+04   -0.90578E-06   -0.30562E-05  3503   0.100E-02    0.405E-02
RMM:   3    -0.112161325834E+04   -0.25984E-06   -0.10194E-05  3426   0.639E-03    0.746E-03
RMM:   4    -0.112161325892E+04   -0.57968E-06   -0.54328E-06  2436   0.312E-03    0.480E-03
RMM:   5    -0.112161325911E+04   -0.19665E-06   -0.31956E-06  2321   0.344E-03    0.866E-03
RMM:   6    -0.112161325906E+04    0.56112E-07   -0.20209E-06  1785   0.235E-03    0.155E-03
RMM:   7    -0.112161325906E+04   -0.22410E-08   -0.91067E-07  1298   0.232E-03    0.886E-04
RMM:   8    -0.112161325908E+04   -0.23152E-07   -0.48935E-07  1017   0.196E-03
   1 F= -.11216133E+04 E0= -.11216133E+04  d E =-.112161E+04  mag=    40.0000
       N       E                     dE             d eps       ncg     rms          rms(c)
DAV:   1    -0.112161336654E+04   -0.10748E-03   -0.43194E-01  6272   0.764E-01    0.301E-01
RMM:   2    -0.112161445809E+04   -0.10915E-02   -0.13099E-02  6144   0.157E-01    0.239E-01
RMM:   3    -0.112161446746E+04   -0.93767E-05   -0.70929E-04  5610   0.471E-02    0.150E-01
RMM:   4    -0.112161438695E+04    0.80507E-04   -0.15520E-04  3832   0.171E-02    0.944E-02
RMM:   5    -0.112161435407E+04    0.32883E-04   -0.11153E-04  3660   0.135E-02    0.297E-02
RMM:   6    -0.112161435513E+04   -0.10600E-05   -0.23239E-05  3545   0.834E-03    0.215E-02
RMM:   7    -0.112161435507E+04    0.57698E-07   -0.11383E-05  3317   0.447E-03    0.122E-02
RMM:   8    -0.112161435457E+04    0.50117E-06   -0.52011E-06  2900   0.403E-03
   2 F= -.11216144E+04 E0= -.11216144E+04  d E =-.109549E-02  mag=    40.0000
       N       E                     dE             d eps       ncg     rms          rms(c)
DAV:   1    -0.112161435272E+04    0.23511E-05   -0.97259E-04  6128   0.364E-02    0.143E-02
RMM:   2    -0.112161435508E+04   -0.23552E-05   -0.28555E-05  3275   0.851E-03    0.130E-02
RMM:   3    -0.112161435548E+04   -0.40035E-06   -0.40914E-06  2905   0.385E-03    0.761E-03
RMM:   4    -0.112161435529E+04    0.18874E-06   -0.82120E-07  1581   0.216E-03    0.545E-03
RMM:   5    -0.112161435504E+04    0.25066E-06   -0.43199E-07  1197   0.197E-03    0.203E-03
RMM:   6    -0.112161435500E+04    0.36875E-07   -0.81845E-08   648   0.182E-03    0.594E-04
RMM:   7    -0.112161435500E+04   -0.28376E-08   -0.13798E-08   538   0.178E-03    0.272E-04
RMM:   8    -0.112161435501E+04   -0.36816E-08   -0.77011E-09   506   0.178E-03
   3 F= -.11216144E+04 E0= -.11216144E+04  d E =-.109593E-02  mag=    40.0000
       N       E                     dE             d eps       ncg     rms          rms(c)
DAV:   1    -0.112161393580E+04    0.41921E-03   -0.45561E-01  6272   0.794E-01    0.252E-01
RMM:   2    -0.112161530908E+04   -0.13733E-02   -0.11389E-02  6168   0.142E-01    0.156E-01
RMM:   3    -0.112161539978E+04   -0.90708E-04   -0.58578E-04  5267   0.472E-02    0.883E-02
RMM:   4    -0.112161536235E+04    0.37439E-04   -0.13584E-04  3681   0.153E-02    0.474E-02
RMM:   5    -0.112161535726E+04    0.50901E-05   -0.60189E-05  3553   0.106E-02    0.346E-02
RMM:   6    -0.112161535911E+04   -0.18502E-05   -0.20194E-05  3473   0.770E-03    0.195E-02
RMM:   7    -0.112161536024E+04   -0.11337E-05   -0.10516E-05  3207   0.422E-03    0.914E-03
RMM:   8    -0.112161536081E+04   -0.56684E-06   -0.56396E-06  2825   0.427E-03
   4 F= -.11216154E+04 E0= -.11216154E+04  d E =-.100580E-02  mag=    40.0000
