       N       E                     dE             d eps       ncg     rms          rms(c)
DAV:   1    -0.992317594326E+03   -0.99232E+03   -0.31573E-02 13056   0.428E-01    0.555E-02
RMM:   2    -0.992317588630E+03    0.56956E-05   -0.70661E-05  7134   0.143E-02    0.101E-01
RMM:   3    -0.992317588378E+03    0.25239E-06   -0.15867E-05  6844   0.751E-03    0.101E-02
RMM:   4    -0.992317587680E+03    0.69755E-06   -0.20221E-06  3916   0.243E-03    0.458E-03
RMM:   5    -0.992317587405E+03    0.27585E-06   -0.18149E-06  3567   0.252E-03    0.430E-03
RMM:   6    -0.992317587182E+03    0.22311E-06   -0.43805E-07  2551   0.215E-03    0.218E-03
RMM:   7    -0.992317586898E+03    0.28312E-06   -0.13833E-07  1813   0.199E-03    0.129E-03
RMM:   8    -0.992317586842E+03    0.56665E-07   -0.59546E-08  1703   0.195E-03
   1 F= -.99231759E+03 E0= -.99231759E+03  d E =-.992318E+03  mag=   120.0000
       N       E                     dE             d eps       ncg     rms          rms(c)
DAV:   1    -0.992316992131E+03    0.59477E-03   -0.29093E-01 12864   0.640E-01    0.340E-01
RMM:   2    -0.992318181304E+03   -0.11892E-02   -0.92856E-03 12457   0.139E-01    0.229E-01
RMM:   3    -0.992318290749E+03   -0.10944E-03   -0.52513E-04 10203   0.410E-02    0.133E-01
RMM:   4    -0.992318245453E+03    0.45296E-04   -0.12215E-04  7495   0.164E-02    0.843E-02
RMM:   5    -0.992318232180E+03    0.13272E-04   -0.82564E-05  7390   0.120E-02    0.393E-02
RMM:   6    -0.992318237336E+03   -0.51561E-05   -0.24481E-05  7134   0.803E-03    0.211E-02
RMM:   7    -0.992318240064E+03   -0.27273E-05   -0.13261E-05  6693   0.508E-03    0.181E-02
RMM:   8    -0.992318242361E+03   -0.22976E-05   -0.66656E-06  5706   0.401E-03
   2 F= -.99231824E+03 E0= -.99231824E+03  d E =-.655520E-03  mag=   120.0000
       N       E                     dE             d eps       ncg     rms          rms(c)
DAV:   1    -0.992318246402E+03   -0.63386E-05   -0.34481E-04 12408   0.227E-02    0.118E-02
RMM:   2    -0.992318248218E+03   -0.18162E-05   -0.12566E-05  6440   0.593E-03    0.909E-03
RMM:   3    -0.992318248807E+03   -0.58817E-06   -0.29754E-06  4230   0.296E-03    0.473E-03
RMM:   4    -0.992318249172E+03   -0.36546E-06   -0.74851E-07  1583   0.224E-03    0.303E-03
RMM:   5    -0.992318249698E+03   -0.52585E-06   -0.70225E-07  1721   0.212E-03    0.112E-03
RMM:   6    -0.992318249919E+03   -0.22132E-06   -0.29965E-07  1509   0.206E-03    0.825E-04
RMM:   7    -0.992318250000E+03   -0.80938E-07   -0.10459E-07  1094   0.187E-03    0.577E-04
RMM:   8    -0.992318250130E+03   -0.12960E-06   -0.42473E-08  1040   0.189E-03
   3 F= -.99231825E+03 E0= -.99231825E+03  d E =-.663288E-03  mag=   120.0000
       N       E                     dE             d eps       ncg     rms          rms(c)
DAV:   1    -0.992317789031E+03    0.46097E-03   -0.25577E-01 12768   0.604E-01    0.232E-01
RMM:   2    -0.992318777343E+03   -0.98831E-03   -0.68782E-03 12548   0.117E-01    0.137E-01
RMM:   3    -0.992318868302E+03   -0.90959E-04   -0.34891E-04  9551   0.337E-02    0.729E-02
RMM:   4    -0.992318851409E+03    0.16892E-04   -0.66610E-05  7220   0.121E-02    0.423E-02
RMM:   5    -0.992318847067E+03    0.43430E-05   -0.38265E-05  7123   0.847E-03    0.208E-02
RMM:   6    -0.992318848406E+03   -0.13394E-05   -0.11081E-05  6757   0.518E-03    0.100E-02
RMM:   7    -0.992318848741E+03   -0.33554E-06   -0.46589E-06  5411   0.339E-03    0.666E-03
RMM:   8    -0.992318848831E+03   -0.89378E-07   -0.22537E-06  4095   0.263E-03
   4 F= -.99231885E+03 E0= -.99231885E+03  d E =-.598701E-03  mag=   120.0000
