<?xml version="1.0" encoding="ISO-8859-1"?>
<modeling>
 <generator>
  <i name="program" type="string">vasp </i>
  <i name="version" type="string">5.4.1  </i>
  <i name="subversion" type="string">05Feb16 (build Jan 25 2017 20:16:33) complex                          parallel </i>
  <i name="platform" type="string">BWXE6 </i>
  <i name="date" type="string">2019 07 18 </i>
  <i name="time" type="string">10:37:11 </i>
 </generator>
 <incar>
  <i type="string" name="SYSTEM"> STF</i>
  <i type="string" name="PREC">normal</i>
  <i type="string" name="ALGO"> Fast</i>
  <i type="int" name="ISPIN">     2</i>
  <i type="int" name="NELM">    40</i>
  <i type="int" name="NELMIN">     8</i>
  <i type="int" name="IBRION">     2</i>
  <i name="EDIFF">      0.00010000</i>
  <i name="EDIFFG">     -0.03000000</i>
  <i type="int" name="NSW">    30</i>
  <i type="int" name="ISIF">     3</i>
  <i name="ENCUT">    520.00000000</i>
  <i type="int" name="NBANDS">   768</i>
  <v name="MAGMOM">      0.60000000      0.60000000      0.60000000      0.60000000      0.60000000      0.60000000      0.60000000      0.60000000      0.60000000      0.60000000      0.60000000      0.60000000      0.60000000      0.60000000      0.60000000      0.60000000      0.60000000      0.60000000      0.60000000      0.60000000
      0.60000000      0.60000000      0.60000000      0.60000000      0.60000000      0.60000000      0.60000000      0.60000000      0.60000000      0.60000000      0.60000000      0.60000000      0.60000000      0.60000000      0.60000000      0.60000000      0.60000000      0.60000000      0.60000000      0.60000000
      5.00000000      5.00000000      5.00000000      5.00000000      5.00000000      5.00000000      5.00000000      5.00000000      5.00000000      5.00000000      5.00000000      5.00000000      5.00000000      5.00000000      5.00000000      5.00000000      5.00000000      5.00000000      5.00000000      5.00000000
      5.00000000      5.00000000      5.00000000      5.00000000      0.60000000      0.60000000      0.60000000      0.60000000      0.60000000      0.60000000      0.60000000      0.60000000      0.60000000      0.60000000      0.60000000      0.60000000      0.60000000      0.60000000      0.60000000      0.60000000
      0.60000000      0.60000000      0.60000000      0.60000000      0.60000000      0.60000000      0.60000000      0.60000000      0.60000000      0.60000000      0.60000000      0.60000000      0.60000000      0.60000000      0.60000000      0.60000000      0.60000000      0.60000000      0.60000000      0.60000000
      0.60000000      0.60000000      0.60000000      0.60000000      0.60000000      0.60000000      0.60000000      0.60000000      0.60000000      0.60000000      0.60000000      0.60000000      0.60000000      0.60000000      0.60000000      0.60000000      0.60000000      0.60000000      0.60000000      0.60000000
      0.60000000      0.60000000      0.60000000      0.60000000      0.60000000      0.60000000      0.60000000      0.60000000      0.60000000      0.60000000      0.60000000      0.60000000      0.60000000      0.60000000      0.60000000      0.60000000      0.60000000      0.60000000      0.60000000      0.60000000
      0.60000000      0.60000000      0.60000000      0.60000000      0.60000000      0.60000000      0.60000000      0.60000000</v>
  <i type="string" name="LREAL"> Auto</i>
  <i type="int" name="ISMEAR">     0</i>
  <i name="SIGMA">      0.05000000</i>
  <i type="int" name="LMAXMIX">     4</i>
  <v type="int" name="KPOINT_BSE">    -1     0     0     0</v>
  <i type="int" name="NELM">    40</i>
  <i type="logical" name="LDAU"> T  </i>
  <v type="int" name="LDAUTYPE">     2</v>
  <v type="int" name="LDAUL">     0     2     2     0</v>
  <v name="LDAUU">      0.00000000      3.00000000      5.00000000      0.00000000</v>
  <v name="LDAUJ">      0.00000000      0.00000000      0.00000000      0.00000000</v>
  <i type="int" name="LDAUPRINT">     1</i>
 </incar>
 <kpoints>
  <generation param="Monkhorst-Pack">
   <v type="int" name="divisions">       2        2        2 </v>
   <v name="usershift">      0.00000000       0.00000000       0.00000000 </v>
   <v name="genvec1">      0.50000000       0.00000000       0.00000000 </v>
   <v name="genvec2">     -0.00000000       0.50000000      -0.00000000 </v>
   <v name="genvec3">      0.00000000       0.00000000       0.50000000 </v>
   <v name="shift">      0.50000000       0.50000000       0.50000000 </v>
  </generation>
  <varray name="kpointlist" >
   <v>       0.25000000       0.25000000       0.25000000 </v>
   <v>      -0.25000000       0.25000000       0.25000000 </v>
   <v>       0.25000000      -0.25000000       0.25000000 </v>
   <v>      -0.25000000      -0.25000000       0.25000000 </v>
  </varray>
  <varray name="weights" >
   <v>       0.25000000 </v>
   <v>       0.25000000 </v>
   <v>       0.25000000 </v>
   <v>       0.25000000 </v>
  </varray>
 </kpoints>
 <parameters>
  <separator name="general" >
   <i type="string" name="SYSTEM">STF</i>
   <i type="logical" name="LCOMPAT"> F  </i>
  </separator>
  <separator name="electronic" >
   <i type="string" name="PREC">normal</i>
   <i name="ENMAX">    520.00000000</i>
   <i name="ENAUG">    605.39200000</i>
   <i name="EDIFF">      0.00010000</i>
   <i type="int" name="IALGO">    68</i>
   <i type="int" name="IWAVPR">    11</i>
   <i type="int" name="NBANDS">   768</i>
   <i name="NELECT">   1048.00000000</i>
   <i type="int" name="TURBO">     0</i>
   <i type="int" name="IRESTART">     0</i>
   <i type="int" name="NREBOOT">     0</i>
   <i type="int" name="NMIN">     0</i>
   <i name="EREF">      0.00000000</i>
   <separator name="electronic smearing" >
    <i type="int" name="ISMEAR">     0</i>
    <i name="SIGMA">      0.05000000</i>
    <i name="KSPACING">      0.50000000</i>
    <i type="logical" name="KGAMMA"> T  </i>
   </separator>
   <separator name="electronic projectors" >
    <i type="logical" name="LREAL"> T  </i>
    <v name="ROPT">     -0.00050000     -0.00050000     -0.00050000     -0.00050000</v>
    <i type="int" name="LMAXPAW">  -100</i>
    <i type="int" name="LMAXMIX">     4</i>
    <i type="logical" name="NLSPLINE"> F  </i>
   </separator>
   <separator name="electronic startup" >
    <i type="int" name="ISTART">     1</i>
    <i type="int" name="ICHARG">     0</i>
    <i type="int" name="INIWAV">     1</i>
   </separator>
   <separator name="electronic spin" >
    <i type="int" name="ISPIN">     2</i>
    <i type="logical" name="LNONCOLLINEAR"> F  </i>
    <v name="MAGMOM">      0.60000000      0.60000000      0.60000000      0.60000000      0.60000000      0.60000000      0.60000000      0.60000000      0.60000000      0.60000000      0.60000000      0.60000000      0.60000000      0.60000000      0.60000000      0.60000000      0.60000000      0.60000000      0.60000000      0.60000000
      0.60000000      0.60000000      0.60000000      0.60000000      0.60000000      0.60000000      0.60000000      0.60000000      0.60000000      0.60000000      0.60000000      0.60000000      0.60000000      0.60000000      0.60000000      0.60000000      0.60000000      0.60000000      0.60000000      0.60000000
      5.00000000      5.00000000      5.00000000      5.00000000      5.00000000      5.00000000      5.00000000      5.00000000      5.00000000      5.00000000      5.00000000      5.00000000      5.00000000      5.00000000      5.00000000      5.00000000      5.00000000      5.00000000      5.00000000      5.00000000
      5.00000000      5.00000000      5.00000000      5.00000000      0.60000000      0.60000000      0.60000000      0.60000000      0.60000000      0.60000000      0.60000000      0.60000000      0.60000000      0.60000000      0.60000000      0.60000000      0.60000000      0.60000000      0.60000000      0.60000000
      0.60000000      0.60000000      0.60000000      0.60000000      0.60000000      0.60000000      0.60000000      0.60000000      0.60000000      0.60000000      0.60000000      0.60000000      0.60000000      0.60000000      0.60000000      0.60000000      0.60000000      0.60000000      0.60000000      0.60000000
      0.60000000      0.60000000      0.60000000      0.60000000      0.60000000      0.60000000      0.60000000      0.60000000      0.60000000      0.60000000      0.60000000      0.60000000      0.60000000      0.60000000      0.60000000      0.60000000      0.60000000      0.60000000      0.60000000      0.60000000
      0.60000000      0.60000000      0.60000000      0.60000000      0.60000000      0.60000000      0.60000000      0.60000000      0.60000000      0.60000000      0.60000000      0.60000000      0.60000000      0.60000000      0.60000000      0.60000000      0.60000000      0.60000000      0.60000000      0.60000000
      0.60000000      0.60000000      0.60000000      0.60000000      0.60000000      0.60000000      0.60000000      0.60000000</v>
    <i name="NUPDOWN">     -1.00000000</i>
    <i type="logical" name="LSORBIT"> F  </i>
    <v name="SAXIS">      0.00000000      0.00000000      1.00000000</v>
    <i type="logical" name="LSPIRAL"> F  </i>
    <v name="QSPIRAL">      0.00000000      0.00000000      0.00000000</v>
    <i type="logical" name="LZEROZ"> F  </i>
   </separator>
   <separator name="electronic exchange-correlation" >
    <i type="logical" name="LASPH"> F  </i>
    <i type="logical" name="LMETAGGA"> F  </i>
   </separator>
   <separator name="electronic convergence" >
    <i type="int" name="NELM">    40</i>
    <i type="int" name="NELMDL">     0</i>
    <i type="int" name="NELMIN">     8</i>
    <i name="ENINI">    520.00000000</i>
    <separator name="electronic convergence detail" >
     <i type="logical" name="LDIAG"> T  </i>
     <i type="logical" name="LSUBROT"> F  </i>
     <i name="WEIMIN">      0.00100000</i>
     <i name="EBREAK">      0.00000003</i>
     <i name="DEPER">      0.30000000</i>
     <i type="int" name="NRMM">     4</i>
     <i name="TIME">      0.40000000</i>
    </separator>
   </separator>
   <separator name="electronic mixer" >
    <i name="AMIX">      0.40000000</i>
    <i name="BMIX">      1.00000000</i>
    <i name="AMIN">      0.10000000</i>
    <i name="AMIX_MAG">      1.60000000</i>
    <i name="BMIX_MAG">      1.00000000</i>
    <separator name="electronic mixer details" >
     <i type="int" name="IMIX">     4</i>
     <i type="logical" name="MIXFIRST"> F  </i>
     <i type="int" name="MAXMIX">   -45</i>
     <i name="WC">    100.00000000</i>
     <i type="int" name="INIMIX">     1</i>
     <i type="int" name="MIXPRE">     1</i>
     <i type="int" name="MREMOVE">     5</i>
    </separator>
   </separator>
   <separator name="electronic dipolcorrection" >
    <i type="logical" name="LDIPOL"> F  </i>
    <i type="logical" name="LMONO"> F  </i>
    <i type="int" name="IDIPOL">     0</i>
    <i name="EPSILON">      1.00000000</i>
    <v name="DIPOL">   -100.00000000   -100.00000000   -100.00000000</v>
    <i name="EFIELD">      0.00000000</i>
   </separator>
  </separator>
  <separator name="grids" >
   <i type="int" name="NGX">    64</i>
   <i type="int" name="NGY">    64</i>
   <i type="int" name="NGZ">    90</i>
   <i type="int" name="NGXF">   128</i>
   <i type="int" name="NGYF">   128</i>
   <i type="int" name="NGZF">   180</i>
   <i type="logical" name="ADDGRID"> F  </i>
  </separator>
  <separator name="ionic" >
   <i type="int" name="NSW">    30</i>
   <i type="int" name="IBRION">     2</i>
   <i type="int" name="ISIF">     3</i>
   <i name="PSTRESS">      0.00000000</i>
   <i name="EDIFFG">     -0.03000000</i>
   <i type="int" name="NFREE">     1</i>
   <i name="POTIM">      0.50000000</i>
   <i name="SMASS">     -3.00000000</i>
   <i name="SCALEE">      1.00000000</i>
  </separator>
  <separator name="ionic md" >
   <i name="TEBEG">      0.00010000</i>
   <i name="TEEND">      0.00010000</i>
   <i type="int" name="NBLOCK">     1</i>
   <i type="int" name="KBLOCK">    30</i>
   <i type="int" name="NPACO">   256</i>
   <i name="APACO">     16.00000000</i>
  </separator>
  <separator name="symmetry" >
   <i type="int" name="ISYM">     2</i>
   <i name="SYMPREC">      0.00001000</i>
  </separator>
  <separator name="dos" >
   <i type="logical" name="LORBIT"> F  </i>
   <v name="RWIGS">     -1.00000000     -1.00000000     -1.00000000     -1.00000000</v>
   <i type="int" name="NEDOS">   301</i>
   <i name="EMIN">     10.00000000</i>
   <i name="EMAX">    -10.00000000</i>
   <i name="EFERMI">      0.00000000</i>
  </separator>
  <separator name="writing" >
   <i type="int" name="NWRITE">     2</i>
   <i type="logical" name="LWAVE"> T  </i>
   <i type="logical" name="LCHARG"> T  </i>
   <i type="logical" name="LPARD"> F  </i>
   <i type="logical" name="LVTOT"> F  </i>
   <i type="logical" name="LVHAR"> F  </i>
   <i type="logical" name="LELF"> F  </i>
   <i type="logical" name="LOPTICS"> F  </i>
   <v name="STM">      0.00000000      0.00000000      0.00000000      0.00000000      0.00000000      0.00000000      0.00000000</v>
  </separator>
  <separator name="performance" >
   <i type="int" name="NPAR">     2</i>
   <i type="int" name="NSIM">     4</i>
   <i type="int" name="NBLK">    -1</i>
   <i type="logical" name="LPLANE"> T  </i>
   <i type="logical" name="LSCALAPACK"> T  </i>
   <i type="logical" name="LSCAAWARE"> F  </i>
   <i type="logical" name="LSCALU"> F  </i>
   <i type="logical" name="LASYNC"> F  </i>
   <i type="logical" name="LORBITALREAL"> F  </i>
  </separator>
  <separator name="miscellaneous" >
   <i type="int" name="IDIOT">     3</i>
   <i type="logical" name="LMUSIC"> F  </i>
   <v name="POMASS">     87.62000000     47.88000000     55.84700000     16.00000000</v>
   <v name="DARWINR">      0.00000000      0.00000000      0.00000000      0.00000000</v>
   <v name="DARWINV">      1.00000000      1.00000000      1.00000000      1.00000000</v>
   <i type="logical" name="LCORR"> T  </i>
  </separator>
  <i type="logical" name="GGA_COMPAT"> T  </i>
  <i type="logical" name="LBERRY"> F  </i>
  <i type="int" name="ICORELEVEL">     0</i>
  <i type="logical" name="LDAU"> T  </i>
  <v type="int" name="LDAUTYPE">     2</v>
  <v type="int" name="LDAUL">     0</v>
  <v name="LDAUU">      0.00000000</v>
  <v name="LDAUJ">      0.00000000</v>
  <i type="int" name="LDAUPRINT">     1</i>
  <i type="int" name="I_CONSTRAINED_M">     0</i>
  <separator name="electronic exchange-correlation" >
   <i type="string" name="GGA">--</i>
   <i type="int" name="VOSKOWN">     0</i>
   <i type="logical" name="LHFCALC"> F  </i>
   <i type="string" name="PRECFOCK"></i>
   <i type="logical" name="LSYMGRAD"> F  </i>
   <i type="logical" name="LHFONE"> F  </i>
   <i type="logical" name="LRHFCALC"> F  </i>
   <i type="logical" name="LTHOMAS"> F  </i>
   <i type="logical" name="LMODELHF"> F  </i>
   <i name="ENCUT4O">     -1.00000000</i>
   <i type="int" name="EXXOEP">     0</i>
   <i type="int" name="FOURORBIT">     0</i>
   <i name="AEXX">      0.00000000</i>
   <i name="HFALPHA">      0.00000000</i>
   <i name="MCALPHA">      0.00000000</i>
   <i name="ALDAX">      1.00000000</i>
   <i name="AGGAX">      1.00000000</i>
   <i name="ALDAC">      1.00000000</i>
   <i name="AGGAC">      1.00000000</i>
   <i type="int" name="NKREDX">     1</i>
   <i type="int" name="NKREDY">     1</i>
   <i type="int" name="NKREDZ">     1</i>
   <i type="logical" name="SHIFTRED"> F  </i>
   <i type="logical" name="ODDONLY"> F  </i>
   <i type="logical" name="EVENONLY"> F  </i>
   <i type="int" name="LMAXFOCK">     0</i>
   <i type="int" name="NMAXFOCKAE">     0</i>
   <i type="logical" name="LFOCKAEDFT"> F  </i>
   <i name="HFSCREEN">      0.00000000</i>
   <i name="HFSCREENC">      0.00000000</i>
   <i type="int" name="NBANDSGWLOW">     0</i>
  </separator>
  <separator name="vdW DFT" >
   <i type="logical" name="LUSE_VDW"> F  </i>
   <i name="Zab_VDW">     -0.84910000</i>
   <i name="PARAM1">      0.12340000</i>
   <i name="PARAM2">      1.00000000</i>
   <i name="PARAM3">      0.00000000</i>
  </separator>
  <separator name="model GW" >
   <i type="int" name="MODEL_GW">     0</i>
   <i name="MODEL_EPS0">      8.19702544</i>
   <i name="MODEL_ALPHA">      1.00000000</i>
  </separator>
  <separator name="linear response parameters" >
   <i type="logical" name="LEPSILON"> F  </i>
   <i type="logical" name="LRPA"> F  </i>
   <i type="logical" name="LNABLA"> F  </i>
   <i type="logical" name="LVEL"> F  </i>
   <i type="int" name="KINTER">     0</i>
   <i name="CSHIFT">      0.10000000</i>
   <i name="OMEGAMAX">     -1.00000000</i>
   <i name="DEG_THRESHOLD">      0.00200000</i>
  </separator>
  <separator name="orbital magnetization" >
   <i type="logical" name="NUCIND"> F  </i>
   <v name="MAGPOS">      0.00000000      0.00000000      0.00000000</v>
   <i type="logical" name="LNICSALL"> T  </i>
   <i type="logical" name="ORBITALMAG"> F  </i>
   <i type="logical" name="LMAGBLOCH"> F  </i>
   <i type="logical" name="LCHIMAG"> F  </i>
   <i type="logical" name="LGAUGE"> T  </i>
   <i type="int" name="MAGATOM">     0</i>
   <v name="MAGDIPOL">      0.00000000      0.00000000      0.00000000</v>
   <v name="AVECCONST">      0.00000000      0.00000000      0.00000000</v>
  </separator>
  <separator name="response functions" >
   <i type="logical" name="LADDER"> F  </i>
   <i type="logical" name="LFXC"> F  </i>
   <i type="logical" name="LHARTREE"> T  </i>
   <i type="int" name="IBSE">     0</i>
   <v type="int" name="KPOINT">    -1     0     0     0</v>
   <i type="logical" name="LTCTE"> F  </i>
   <i type="logical" name="LTETE"> F  </i>
   <i type="logical" name="LTRIPLET"> F  </i>
   <i type="logical" name="LFXCEPS"> F  </i>
   <i type="logical" name="LFXHEG"> F  </i>
   <i type="int" name="NATURALO">     0</i>
   <i type="logical" name="L2ORDER"> F  </i>
   <i type="logical" name="LUSEW"> F  </i>
   <i name="ENCUTGW">     -2.00000000</i>
   <i name="ENCUTGWSOFT">     -2.00000000</i>
   <i name="ENCUTLF">     -1.00000000</i>
   <i type="int" name="LMAXMP2">    -1</i>
   <i name="SCISSOR">      0.00000000</i>
   <i type="int" name="NOMEGA">     0</i>
   <i type="int" name="NOMEGAR">     0</i>
   <i type="int" name="NBANDSGW">    -1</i>
   <i type="int" name="NBANDSO">    -1</i>
   <i type="int" name="NBANDSV">    -1</i>
   <i type="int" name="NELM">    40</i>
   <i type="int" name="NELMHF">     1</i>
   <i type="int" name="DIM">     3</i>
   <i type="int" name="ANTIRES">     0</i>
   <i name="OMEGAMAX">    -30.00000000</i>
   <i name="OMEGAMIN">    -30.00000000</i>
   <i name="OMEGATL">   -200.00000000</i>
   <i type="int" name="OMEGAGRID">     0</i>
   <i name="CSHIFT">     -0.10000000</i>
   <i type="logical" name="SELFENERGY"> F  </i>
   <i type="logical" name="LSPECTRAL"> F  </i>
   <i type="logical" name="LSPECTRALGW"> F  </i>
   <i type="logical" name="LSINGLES"> F  </i>
   <i type="logical" name="LFERMIGW"> F  </i>
   <i type="logical" name="ODDONLYGW"> F  </i>
   <i type="logical" name="EVENONLYGW"> F  </i>
   <i type="int" name="NKREDLFX">     1</i>
   <i type="int" name="NKREDLFY">     1</i>
   <i type="int" name="NKREDLFZ">     1</i>
   <i type="int" name="MAXMEM">  1800</i>
   <i type="int" name="TELESCOPE">     0</i>
   <i type="int" name="TAUPAR">     1</i>
   <i type="int" name="OMEGAPAR">    -1</i>
   <i name="LAMBDA">      1.00000000</i>
  </separator>
  <separator name="External order field" >
   <i name="OFIELD_KAPPA">      0.00000000</i>
   <v name="OFIELD_K">      0.00000000      0.00000000      0.00000000</v>
   <i name="OFIELD_Q6_NEAR">      0.00000000</i>
   <i name="OFIELD_Q6_FAR">      0.00000000</i>
   <i name="OFIELD_A">      0.00000000</i>
  </separator>
 </parameters>
 <atominfo>
  <atoms>     148 </atoms>
  <types>       4 </types>
  <array name="atoms" >
   <dimension dim="1">ion</dimension>
   <field type="string">element</field>
   <field type="int">atomtype</field>
   <set>
    <rc><c>Sr</c><c>   1</c></rc>
    <rc><c>Sr</c><c>   1</c></rc>
    <rc><c>Sr</c><c>   1</c></rc>
    <rc><c>Sr</c><c>   1</c></rc>
    <rc><c>Sr</c><c>   1</c></rc>
    <rc><c>Sr</c><c>   1</c></rc>
    <rc><c>Sr</c><c>   1</c></rc>
    <rc><c>Sr</c><c>   1</c></rc>
    <rc><c>Sr</c><c>   1</c></rc>
    <rc><c>Sr</c><c>   1</c></rc>
    <rc><c>Sr</c><c>   1</c></rc>
    <rc><c>Sr</c><c>   1</c></rc>
    <rc><c>Sr</c><c>   1</c></rc>
    <rc><c>Sr</c><c>   1</c></rc>
    <rc><c>Sr</c><c>   1</c></rc>
    <rc><c>Sr</c><c>   1</c></rc>
    <rc><c>Sr</c><c>   1</c></rc>
    <rc><c>Sr</c><c>   1</c></rc>
    <rc><c>Sr</c><c>   1</c></rc>
    <rc><c>Sr</c><c>   1</c></rc>
    <rc><c>Sr</c><c>   1</c></rc>
    <rc><c>Sr</c><c>   1</c></rc>
    <rc><c>Sr</c><c>   1</c></rc>
    <rc><c>Sr</c><c>   1</c></rc>
    <rc><c>Sr</c><c>   1</c></rc>
    <rc><c>Sr</c><c>   1</c></rc>
    <rc><c>Sr</c><c>   1</c></rc>
    <rc><c>Sr</c><c>   1</c></rc>
    <rc><c>Sr</c><c>   1</c></rc>
    <rc><c>Sr</c><c>   1</c></rc>
    <rc><c>Sr</c><c>   1</c></rc>
    <rc><c>Sr</c><c>   1</c></rc>
    <rc><c>Ti</c><c>   2</c></rc>
    <rc><c>Ti</c><c>   2</c></rc>
    <rc><c>Ti</c><c>   2</c></rc>
    <rc><c>Ti</c><c>   2</c></rc>
    <rc><c>Ti</c><c>   2</c></rc>
    <rc><c>Ti</c><c>   2</c></rc>
    <rc><c>Ti</c><c>   2</c></rc>
    <rc><c>Ti</c><c>   2</c></rc>
    <rc><c>Fe</c><c>   3</c></rc>
    <rc><c>Fe</c><c>   3</c></rc>
    <rc><c>Fe</c><c>   3</c></rc>
    <rc><c>Fe</c><c>   3</c></rc>
    <rc><c>Fe</c><c>   3</c></rc>
    <rc><c>Fe</c><c>   3</c></rc>
    <rc><c>Fe</c><c>   3</c></rc>
    <rc><c>Fe</c><c>   3</c></rc>
    <rc><c>Fe</c><c>   3</c></rc>
    <rc><c>Fe</c><c>   3</c></rc>
    <rc><c>Fe</c><c>   3</c></rc>
    <rc><c>Fe</c><c>   3</c></rc>
    <rc><c>Fe</c><c>   3</c></rc>
    <rc><c>Fe</c><c>   3</c></rc>
    <rc><c>Fe</c><c>   3</c></rc>
    <rc><c>Fe</c><c>   3</c></rc>
    <rc><c>Fe</c><c>   3</c></rc>
    <rc><c>Fe</c><c>   3</c></rc>
    <rc><c>Fe</c><c>   3</c></rc>
    <rc><c>Fe</c><c>   3</c></rc>
    <rc><c>Fe</c><c>   3</c></rc>
    <rc><c>Fe</c><c>   3</c></rc>
    <rc><c>Fe</c><c>   3</c></rc>
    <rc><c>Fe</c><c>   3</c></rc>
    <rc><c>O </c><c>   4</c></rc>
    <rc><c>O </c><c>   4</c></rc>
    <rc><c>O </c><c>   4</c></rc>
    <rc><c>O </c><c>   4</c></rc>
    <rc><c>O </c><c>   4</c></rc>
    <rc><c>O </c><c>   4</c></rc>
    <rc><c>O </c><c>   4</c></rc>
    <rc><c>O </c><c>   4</c></rc>
    <rc><c>O </c><c>   4</c></rc>
    <rc><c>O </c><c>   4</c></rc>
    <rc><c>O </c><c>   4</c></rc>
    <rc><c>O </c><c>   4</c></rc>
    <rc><c>O </c><c>   4</c></rc>
    <rc><c>O </c><c>   4</c></rc>
    <rc><c>O </c><c>   4</c></rc>
    <rc><c>O </c><c>   4</c></rc>
    <rc><c>O </c><c>   4</c></rc>
    <rc><c>O </c><c>   4</c></rc>
    <rc><c>O </c><c>   4</c></rc>
    <rc><c>O </c><c>   4</c></rc>
    <rc><c>O </c><c>   4</c></rc>
    <rc><c>O </c><c>   4</c></rc>
    <rc><c>O </c><c>   4</c></rc>
    <rc><c>O </c><c>   4</c></rc>
    <rc><c>O </c><c>   4</c></rc>
    <rc><c>O </c><c>   4</c></rc>
    <rc><c>O </c><c>   4</c></rc>
    <rc><c>O </c><c>   4</c></rc>
    <rc><c>O </c><c>   4</c></rc>
    <rc><c>O </c><c>   4</c></rc>
    <rc><c>O </c><c>   4</c></rc>
    <rc><c>O </c><c>   4</c></rc>
    <rc><c>O </c><c>   4</c></rc>
    <rc><c>O </c><c>   4</c></rc>
    <rc><c>O </c><c>   4</c></rc>
    <rc><c>O </c><c>   4</c></rc>
    <rc><c>O </c><c>   4</c></rc>
    <rc><c>O </c><c>   4</c></rc>
    <rc><c>O </c><c>   4</c></rc>
    <rc><c>O </c><c>   4</c></rc>
    <rc><c>O </c><c>   4</c></rc>
    <rc><c>O </c><c>   4</c></rc>
    <rc><c>O </c><c>   4</c></rc>
    <rc><c>O </c><c>   4</c></rc>
    <rc><c>O </c><c>   4</c></rc>
    <rc><c>O </c><c>   4</c></rc>
    <rc><c>O </c><c>   4</c></rc>
    <rc><c>O </c><c>   4</c></rc>
    <rc><c>O </c><c>   4</c></rc>
    <rc><c>O </c><c>   4</c></rc>
    <rc><c>O </c><c>   4</c></rc>
    <rc><c>O </c><c>   4</c></rc>
    <rc><c>O </c><c>   4</c></rc>
    <rc><c>O </c><c>   4</c></rc>
    <rc><c>O </c><c>   4</c></rc>
    <rc><c>O </c><c>   4</c></rc>
    <rc><c>O </c><c>   4</c></rc>
    <rc><c>O </c><c>   4</c></rc>
    <rc><c>O </c><c>   4</c></rc>
    <rc><c>O </c><c>   4</c></rc>
    <rc><c>O </c><c>   4</c></rc>
    <rc><c>O </c><c>   4</c></rc>
    <rc><c>O </c><c>   4</c></rc>
    <rc><c>O </c><c>   4</c></rc>
    <rc><c>O </c><c>   4</c></rc>
    <rc><c>O </c><c>   4</c></rc>
    <rc><c>O </c><c>   4</c></rc>
    <rc><c>O </c><c>   4</c></rc>
    <rc><c>O </c><c>   4</c></rc>
    <rc><c>O </c><c>   4</c></rc>
    <rc><c>O </c><c>   4</c></rc>
    <rc><c>O </c><c>   4</c></rc>
    <rc><c>O </c><c>   4</c></rc>
    <rc><c>O </c><c>   4</c></rc>
    <rc><c>O </c><c>   4</c></rc>
    <rc><c>O </c><c>   4</c></rc>
    <rc><c>O </c><c>   4</c></rc>
    <rc><c>O </c><c>   4</c></rc>
    <rc><c>O </c><c>   4</c></rc>
    <rc><c>O </c><c>   4</c></rc>
    <rc><c>O </c><c>   4</c></rc>
    <rc><c>O </c><c>   4</c></rc>
    <rc><c>O </c><c>   4</c></rc>
    <rc><c>O </c><c>   4</c></rc>
   </set>
  </array>
  <array name="atomtypes" >
   <dimension dim="1">type</dimension>
   <field type="int">atomspertype</field>
   <field type="string">element</field>
   <field>mass</field>
   <field>valence</field>
   <field type="string">pseudopotential</field>
   <set>
    <rc><c>  32</c><c>Sr</c><c>     87.62000000</c><c>     10.00000000</c><c>  PAW_PBE Sr_sv 07Sep2000               </c></rc>
    <rc><c>   8</c><c>Ti</c><c>     47.88000000</c><c>      4.00000000</c><c>  PAW_PBE Ti 08Apr2002                  </c></rc>
    <rc><c>  24</c><c>Fe</c><c>     55.84700000</c><c>      8.00000000</c><c>  PAW_PBE Fe 06Sep2000                  </c></rc>
    <rc><c>  84</c><c>O </c><c>     16.00000000</c><c>      6.00000000</c><c>  PAW_PBE O 08Apr2002                   </c></rc>
   </set>
  </array>
 </atominfo>
 <structure name="initialpos" >
  <crystal>
   <varray name="basis" >
    <v>      11.34218823      -0.01903264      -0.01091925 </v>
    <v>      -0.01901348      11.34095754      -0.00527126 </v>
    <v>      -0.01475224      -0.00792591      15.71889055 </v>
   </varray>
   <i name="volume">   2021.93294139 </i>
   <varray name="rec_basis" >
    <v>       0.08816674       0.00014785       0.00008282 </v>
    <v>       0.00014801       0.08817624       0.00004460 </v>
    <v>       0.00006130       0.00002967       0.06361779 </v>
   </varray>
  </crystal>
  <varray name="positions" >
   <v>       0.99694155       0.25454215       0.12092630 </v>
   <v>       0.00339402       0.26085851       0.62983675 </v>
   <v>       0.99880709       0.74123178       0.12830470 </v>
   <v>       0.99311061       0.72368735       0.62724634 </v>
   <v>       0.49637794       0.25720450       0.12624555 </v>
   <v>       0.49501713       0.25506872       0.63132436 </v>
   <v>       0.50275249       0.74768847       0.12233649 </v>
   <v>       0.51142010       0.74531183       0.62542773 </v>
   <v>       0.01619530       0.25315435       0.37685555 </v>
   <v>       0.99949191       0.26638425       0.87158285 </v>
   <v>       0.99912241       0.73471494       0.37818991 </v>
   <v>       0.00113983       0.72578032       0.87184029 </v>
   <v>       0.48743256       0.24812950       0.38405665 </v>
   <v>       0.50142224       0.25978956       0.87163317 </v>
   <v>       0.49848098       0.74916666       0.38023195 </v>
   <v>       0.50623179       0.74518101       0.86589120 </v>
   <v>       0.25018406       0.99328256       0.12883502 </v>
   <v>       0.26442484       0.00890251       0.62303133 </v>
   <v>       0.25129691       0.50289696       0.10730345 </v>
   <v>       0.24520120       0.48873975       0.62886435 </v>
   <v>       0.74874968       0.99599332       0.13892032 </v>
   <v>       0.73597739       0.00304376       0.62227162 </v>
   <v>       0.74389831       0.50853859       0.12273167 </v>
   <v>       0.75372285       0.50275998       0.63601074 </v>
   <v>       0.26167278       0.99472156       0.38081407 </v>
   <v>       0.26210265       0.00437331       0.86888763 </v>
   <v>       0.24981357       0.49692340       0.39798401 </v>
   <v>       0.24554039       0.49716852       0.86516172 </v>
   <v>       0.74728721       0.98822154       0.37843991 </v>
   <v>       0.74356632       0.00136738       0.85807269 </v>
   <v>       0.74997205       0.50976381       0.38044015 </v>
   <v>       0.75528284       0.50040084       0.86701355 </v>
   <v>       0.50380641       0.00132568       0.74784541 </v>
   <v>       0.24607097       0.74607175       0.99454076 </v>
   <v>       0.24901145       0.74659452       0.50811925 </v>
   <v>       0.50869291       0.00153875       0.25124202 </v>
   <v>       0.98843183       0.00416729       0.24901302 </v>
   <v>       0.25030013       0.25746470       0.99842339 </v>
   <v>       0.74845944       0.74822027       0.50092445 </v>
   <v>       0.50698971       0.49988819       0.75077180 </v>
   <v>       0.02953456       0.99958974       0.00567160 </v>
   <v>       0.01296662       0.98182178       0.48702336 </v>
   <v>       0.00015328       0.49312445       0.49997398 </v>
   <v>       0.47167960       0.00417768       0.00265251 </v>
   <v>       0.75076108       0.75744935       0.25071876 </v>
   <v>       0.25214055       0.25242045       0.50918512 </v>
   <v>       0.75381831       0.72410065       0.99979756 </v>
   <v>       0.75733957       0.75123840       0.75024918 </v>
   <v>       0.75046569       0.24981977       0.75028882 </v>
   <v>       0.74390779       0.28103255       0.00029241 </v>
   <v>       0.73304250       0.27095554       0.50590706 </v>
   <v>       0.96920845       0.49323631       0.24868280 </v>
   <v>       0.49828967       0.99708175       0.49788451 </v>
   <v>       0.24611495       0.22163622       0.24442055 </v>
   <v>       0.26015516       0.74008555       0.74682713 </v>
   <v>       0.74766177       0.24295352       0.23279757 </v>
   <v>       0.52783147       0.50464456       0.24991292 </v>
   <v>       0.98275104       0.00623877       0.77171099 </v>
   <v>       0.00627970       0.49884295       0.00070419 </v>
   <v>       0.25225301       0.77706041       0.24928101 </v>
   <v>       0.25774377       0.25157253       0.75280196 </v>
   <v>       0.49802617       0.50026598       0.50219799 </v>
   <v>       0.99803478       0.49438063       0.75112663 </v>
   <v>       0.49170242       0.50397459       0.99669595 </v>
   <v>       0.10147276       0.14064877       0.23591249 </v>
   <v>       0.13345741       0.05180626       0.74642140 </v>
   <v>       0.03126764       0.50673395       0.35901372 </v>
   <v>       0.12514537       0.62767095       0.74657442 </v>
   <v>       0.60821506       0.14430414       0.25679758 </v>
   <v>       0.61192264       0.64904721       0.24595535 </v>
   <v>       0.62617970       0.63030446       0.75626126 </v>
   <v>       0.37379850       0.62833435       0.51446992 </v>
   <v>       0.37868467       0.37542836       0.75269704 </v>
   <v>       0.38156239       0.87616176       0.75218494 </v>
   <v>       0.88755496       0.34763997       0.24857955 </v>
   <v>       0.87205413       0.35339912       0.47009618 </v>
   <v>       0.89138923       0.86461906       0.24771367 </v>
   <v>       0.90815636       0.86174774       0.74677591 </v>
   <v>       0.36593091       0.10709419       0.24150821 </v>
   <v>       0.62403562       0.87321599       0.50258109 </v>
   <v>       0.87810368       0.62374508       0.49181842 </v>
   <v>       0.84978263       0.11081017       0.25905932 </v>
   <v>       0.87542085       0.11949696       0.73221611 </v>
   <v>       0.87006105       0.62019281       0.75845574 </v>
   <v>       0.38317924       0.12291298       0.76407037 </v>
   <v>       0.13091247       0.89391029       0.24786003 </v>
   <v>       0.74547315       0.78465502       0.11052959 </v>
   <v>       0.64403971       0.38318131       0.24608275 </v>
   <v>       0.63494057       0.88176628       0.74227221 </v>
   <v>       0.65311552       0.12664581       0.48220070 </v>
   <v>       0.35605849       0.39141383       0.98792727 </v>
   <v>       0.37401008       0.37528169       0.50732765 </v>
   <v>       0.35419029       0.88662888       0.01093173 </v>
   <v>       0.37800644       0.62379523       0.74147245 </v>
   <v>       0.86866354       0.38765785       0.01353011 </v>
   <v>       0.87220084       0.36870033       0.76204310 </v>
   <v>       0.74824062       0.21183388       0.11027704 </v>
   <v>       0.87453476       0.89776513       0.51553146 </v>
   <v>       0.14808304       0.11405402       0.01722744 </v>
   <v>       0.09447310       0.11606724       0.52178831 </v>
   <v>       0.14119778       0.61234761       0.99148235 </v>
   <v>       0.12803204       0.62062459       0.50810600 </v>
   <v>       0.52273232       0.49222629       0.62569571 </v>
   <v>       0.74424976       0.26481055       0.62350689 </v>
   <v>       0.39453543       0.86313313       0.23997507 </v>
   <v>       0.62441186       0.62769798       0.48938366 </v>
   <v>       0.11203772       0.35755722       0.00341413 </v>
   <v>       0.12240850       0.36738595       0.50306888 </v>
   <v>       0.86100895       0.61913123       0.24036993 </v>
   <v>       0.12711959       0.86414277       0.47517840 </v>
   <v>       0.60254672       0.36568152       0.00766345 </v>
   <v>       0.39486096       0.15043097       0.00247124 </v>
   <v>       0.75026885       0.78114271       0.88800923 </v>
   <v>       0.36643601       0.12423713       0.48905844 </v>
   <v>       0.38320480       0.64610485       0.99550307 </v>
   <v>       0.61881486       0.38031051       0.47062124 </v>
   <v>       0.89400652       0.63616669       0.00855134 </v>
   <v>       0.96473677       0.01243371       0.11512197 </v>
   <v>       0.62446722       0.12641822       0.75254101 </v>
   <v>       0.03743852       0.50184461       0.14085705 </v>
   <v>       0.98153016       0.48871806       0.62325319 </v>
   <v>       0.53105807       0.00023457       0.11401532 </v>
   <v>       0.49948533       0.01534757       0.62305400 </v>
   <v>       0.46734194       0.49942616       0.13820379 </v>
   <v>       0.62661035       0.61787604       0.00855647 </v>
   <v>       0.99046764       0.02196364       0.37243900 </v>
   <v>       0.63995537       0.89317620       0.25469934 </v>
   <v>       0.00276906       0.49571585       0.87782889 </v>
   <v>       0.49458115       0.99592484       0.37239264 </v>
   <v>       0.23474750       0.77183112       0.87082910 </v>
   <v>       0.46181741       0.50482208       0.35792618 </v>
   <v>       0.49904319       0.50903122       0.87451992 </v>
   <v>       0.24671753       0.27708639       0.35547864 </v>
   <v>       0.23420400       0.23654706       0.87678606 </v>
   <v>       0.25469790       0.71743750       0.35959899 </v>
   <v>       0.62808505       0.37615636       0.76281551 </v>
   <v>       0.96351082       0.02110734       0.89694519 </v>
   <v>       0.37130123       0.87175350       0.49546978 </v>
   <v>       0.76301243       0.75976144       0.37620946 </v>
   <v>       0.52715998       0.98545708       0.89115115 </v>
   <v>       0.26527538       0.28449137       0.13523153 </v>
   <v>       0.10464584       0.85383506       0.01129113 </v>
   <v>       0.24041647       0.72159850       0.13715098 </v>
   <v>       0.22518711       0.78176583       0.62804077 </v>
   <v>       0.75299255       0.21878608       0.89147014 </v>
   <v>       0.12289875       0.36288147       0.74874750 </v>
   <v>       0.25652070       0.23621673       0.63095913 </v>
   <v>       0.75347873       0.73858465       0.62379594 </v>
  </varray>
 </structure>
 <calculation>
  <scstep>
   <time name="dav">  297.69  297.70</time>
   <time name="total">  301.43  302.08</time>
   <energy>
    <i name="alphaZ">   5557.75953017 </i>
    <i name="ewald"> -62397.33975719 </i>
    <i name="hartreedc"> -19151.58951453 </i>
    <i name="XCdc">   3407.29608358 </i>
    <i name="pawpsdc"> 116777.98338825 </i>
    <i name="pawaedc">-116286.59231514 </i>
    <i name="eentropy">     -0.00000000 </i>
    <i name="bandstr">  -7216.73946550 </i>
    <i name="atom">  78316.90445604 </i>
    <i name="e_fr_energy">   -992.31759433 </i>
    <i name="e_wo_entrp">   -992.31759433 </i>
    <i name="e_0_energy">   -992.31759433 </i>
   </energy>
  </scstep>
  <scstep>
   <time name="diag">   33.40   33.40</time>
   <time name="diis">   31.45   31.45</time>
   <time name="orth">   19.04   19.04</time>
   <time name="total">   87.61   87.68</time>
   <energy>
    <i name="e_fr_energy">   -992.31758863 </i>
    <i name="e_wo_entrp">   -992.31758863 </i>
    <i name="e_0_energy">   -992.31758863 </i>
   </energy>
  </scstep>
  <scstep>
   <time name="diag">   33.37   33.37</time>
   <time name="diis">   30.51   30.51</time>
   <time name="orth">   19.00   19.00</time>
   <time name="total">   86.63   86.73</time>
   <energy>
    <i name="e_fr_energy">   -992.31758838 </i>
    <i name="e_wo_entrp">   -992.31758838 </i>
    <i name="e_0_energy">   -992.31758838 </i>
   </energy>
  </scstep>
  <scstep>
   <time name="diag">   33.45   33.45</time>
   <time name="diis">   26.01   26.00</time>
   <time name="orth">   19.01   19.01</time>
   <time name="total">   82.17   82.29</time>
   <energy>
    <i name="e_fr_energy">   -992.31758768 </i>
    <i name="e_wo_entrp">   -992.31758768 </i>
    <i name="e_0_energy">   -992.31758768 </i>
   </energy>
  </scstep>
  <scstep>
   <time name="diag">   33.39   33.38</time>
   <time name="diis">   25.23   25.23</time>
   <time name="orth">   19.00   19.00</time>
   <time name="total">   81.32   81.38</time>
   <energy>
    <i name="e_fr_energy">   -992.31758740 </i>
    <i name="e_wo_entrp">   -992.31758740 </i>
    <i name="e_0_energy">   -992.31758740 </i>
   </energy>
  </scstep>
  <scstep>
   <time name="diag">   33.35   33.35</time>
   <time name="diis">   23.53   23.53</time>
   <time name="orth">   18.99   18.99</time>
   <time name="total">   79.60   79.63</time>
   <energy>
    <i name="e_fr_energy">   -992.31758718 </i>
    <i name="e_wo_entrp">   -992.31758718 </i>
    <i name="e_0_energy">   -992.31758718 </i>
   </energy>
  </scstep>
  <scstep>
   <time name="diag">   33.41   33.41</time>
   <time name="diis">   22.42   22.42</time>
   <time name="orth">   18.98   18.98</time>
   <time name="total">   78.56   78.61</time>
   <energy>
    <i name="e_fr_energy">   -992.31758690 </i>
    <i name="e_wo_entrp">   -992.31758690 </i>
    <i name="e_0_energy">   -992.31758690 </i>
   </energy>
  </scstep>
  <scstep>
   <time name="diag">   33.40   33.40</time>
   <time name="diis">   22.15   22.15</time>
   <time name="orth">   18.97   18.97</time>
   <time name="total">   75.09   75.11</time>
   <energy>
    <i name="alphaZ">   5557.75953017 </i>
    <i name="ewald"> -62397.33975719 </i>
    <i name="hartreedc"> -19151.59746573 </i>
    <i name="XCdc">   3407.29199184 </i>
    <i name="pawpsdc"> 116776.56330851 </i>
    <i name="pawaedc">-116285.21434069 </i>
    <i name="eentropy">     -0.00000000 </i>
    <i name="bandstr">  -7216.68530980 </i>
    <i name="atom">  78316.90445604 </i>
    <i name="e_fr_energy">   -992.31758684 </i>
    <i name="e_wo_entrp">   -992.31758684 </i>
    <i name="e_0_energy">   -992.31758684 </i>
   </energy>
  </scstep>
  <structure>
   <crystal>
    <varray name="basis" >
     <v>      11.34218823      -0.01903264      -0.01091925 </v>
     <v>      -0.01901348      11.34095754      -0.00527126 </v>
     <v>      -0.01475224      -0.00792591      15.71889055 </v>
    </varray>
    <i name="volume">   2021.93294139 </i>
    <varray name="rec_basis" >
     <v>       0.08816674       0.00014785       0.00008282 </v>
     <v>       0.00014801       0.08817624       0.00004460 </v>
     <v>       0.00006130       0.00002967       0.06361779 </v>
    </varray>
   </crystal>
   <varray name="positions" >
    <v>       0.99694155       0.25454215       0.12092630 </v>
    <v>       0.00339402       0.26085851       0.62983675 </v>
    <v>       0.99880709       0.74123178       0.12830470 </v>
    <v>       0.99311061       0.72368735       0.62724634 </v>
    <v>       0.49637794       0.25720450       0.12624555 </v>
    <v>       0.49501713       0.25506872       0.63132436 </v>
    <v>       0.50275249       0.74768847       0.12233649 </v>
    <v>       0.51142010       0.74531183       0.62542773 </v>
    <v>       0.01619530       0.25315435       0.37685555 </v>
    <v>       0.99949191       0.26638425       0.87158285 </v>
    <v>       0.99912241       0.73471494       0.37818991 </v>
    <v>       0.00113983       0.72578032       0.87184029 </v>
    <v>       0.48743256       0.24812950       0.38405665 </v>
    <v>       0.50142224       0.25978956       0.87163317 </v>
    <v>       0.49848098       0.74916666       0.38023195 </v>
    <v>       0.50623179       0.74518101       0.86589120 </v>
    <v>       0.25018406       0.99328256       0.12883502 </v>
    <v>       0.26442484       0.00890251       0.62303133 </v>
    <v>       0.25129691       0.50289696       0.10730345 </v>
    <v>       0.24520120       0.48873975       0.62886435 </v>
    <v>       0.74874968       0.99599332       0.13892032 </v>
    <v>       0.73597739       0.00304376       0.62227162 </v>
    <v>       0.74389831       0.50853859       0.12273167 </v>
    <v>       0.75372285       0.50275998       0.63601074 </v>
    <v>       0.26167278       0.99472156       0.38081407 </v>
    <v>       0.26210265       0.00437331       0.86888763 </v>
    <v>       0.24981357       0.49692340       0.39798401 </v>
    <v>       0.24554039       0.49716852       0.86516172 </v>
    <v>       0.74728721       0.98822154       0.37843991 </v>
    <v>       0.74356632       0.00136738       0.85807269 </v>
    <v>       0.74997205       0.50976381       0.38044015 </v>
    <v>       0.75528284       0.50040084       0.86701355 </v>
    <v>       0.50380641       0.00132568       0.74784541 </v>
    <v>       0.24607097       0.74607175       0.99454076 </v>
    <v>       0.24901145       0.74659452       0.50811925 </v>
    <v>       0.50869291       0.00153875       0.25124202 </v>
    <v>       0.98843183       0.00416729       0.24901302 </v>
    <v>       0.25030013       0.25746470       0.99842339 </v>
    <v>       0.74845944       0.74822027       0.50092445 </v>
    <v>       0.50698971       0.49988819       0.75077180 </v>
    <v>       0.02953456       0.99958974       0.00567160 </v>
    <v>       0.01296662       0.98182178       0.48702336 </v>
    <v>       0.00015328       0.49312445       0.49997398 </v>
    <v>       0.47167960       0.00417768       0.00265251 </v>
    <v>       0.75076108       0.75744935       0.25071876 </v>
    <v>       0.25214055       0.25242045       0.50918512 </v>
    <v>       0.75381831       0.72410065       0.99979756 </v>
    <v>       0.75733957       0.75123840       0.75024918 </v>
    <v>       0.75046569       0.24981977       0.75028882 </v>
    <v>       0.74390779       0.28103255       0.00029241 </v>
    <v>       0.73304250       0.27095554       0.50590706 </v>
    <v>       0.96920845       0.49323631       0.24868280 </v>
    <v>       0.49828967       0.99708175       0.49788451 </v>
    <v>       0.24611495       0.22163622       0.24442055 </v>
    <v>       0.26015516       0.74008555       0.74682713 </v>
    <v>       0.74766177       0.24295352       0.23279757 </v>
    <v>       0.52783147       0.50464456       0.24991292 </v>
    <v>       0.98275104       0.00623877       0.77171099 </v>
    <v>       0.00627970       0.49884295       0.00070419 </v>
    <v>       0.25225301       0.77706041       0.24928101 </v>
    <v>       0.25774377       0.25157253       0.75280196 </v>
    <v>       0.49802617       0.50026598       0.50219799 </v>
    <v>       0.99803478       0.49438063       0.75112663 </v>
    <v>       0.49170242       0.50397459       0.99669595 </v>
    <v>       0.10147276       0.14064877       0.23591249 </v>
    <v>       0.13345741       0.05180626       0.74642140 </v>
    <v>       0.03126764       0.50673395       0.35901372 </v>
    <v>       0.12514537       0.62767095       0.74657442 </v>
    <v>       0.60821506       0.14430414       0.25679758 </v>
    <v>       0.61192264       0.64904721       0.24595535 </v>
    <v>       0.62617970       0.63030446       0.75626126 </v>
    <v>       0.37379850       0.62833435       0.51446992 </v>
    <v>       0.37868467       0.37542836       0.75269704 </v>
    <v>       0.38156239       0.87616176       0.75218494 </v>
    <v>       0.88755496       0.34763997       0.24857955 </v>
    <v>       0.87205413       0.35339912       0.47009618 </v>
    <v>       0.89138923       0.86461906       0.24771367 </v>
    <v>       0.90815636       0.86174774       0.74677591 </v>
    <v>       0.36593091       0.10709419       0.24150821 </v>
    <v>       0.62403562       0.87321599       0.50258109 </v>
    <v>       0.87810368       0.62374508       0.49181842 </v>
    <v>       0.84978263       0.11081017       0.25905932 </v>
    <v>       0.87542085       0.11949696       0.73221611 </v>
    <v>       0.87006105       0.62019281       0.75845574 </v>
    <v>       0.38317924       0.12291298       0.76407037 </v>
    <v>       0.13091247       0.89391029       0.24786003 </v>
    <v>       0.74547315       0.78465502       0.11052959 </v>
    <v>       0.64403971       0.38318131       0.24608275 </v>
    <v>       0.63494057       0.88176628       0.74227221 </v>
    <v>       0.65311552       0.12664581       0.48220070 </v>
    <v>       0.35605849       0.39141383       0.98792727 </v>
    <v>       0.37401008       0.37528169       0.50732765 </v>
    <v>       0.35419029       0.88662888       0.01093173 </v>
    <v>       0.37800644       0.62379523       0.74147245 </v>
    <v>       0.86866354       0.38765785       0.01353011 </v>
    <v>       0.87220084       0.36870033       0.76204310 </v>
    <v>       0.74824062       0.21183388       0.11027704 </v>
    <v>       0.87453476       0.89776513       0.51553146 </v>
    <v>       0.14808304       0.11405402       0.01722744 </v>
    <v>       0.09447310       0.11606724       0.52178831 </v>
    <v>       0.14119778       0.61234761       0.99148235 </v>
    <v>       0.12803204       0.62062459       0.50810600 </v>
    <v>       0.52273232       0.49222629       0.62569571 </v>
    <v>       0.74424976       0.26481055       0.62350689 </v>
    <v>       0.39453543       0.86313313       0.23997507 </v>
    <v>       0.62441186       0.62769798       0.48938366 </v>
    <v>       0.11203772       0.35755722       0.00341413 </v>
    <v>       0.12240850       0.36738595       0.50306888 </v>
    <v>       0.86100895       0.61913123       0.24036993 </v>
    <v>       0.12711959       0.86414277       0.47517840 </v>
    <v>       0.60254672       0.36568152       0.00766345 </v>
    <v>       0.39486096       0.15043097       0.00247124 </v>
    <v>       0.75026885       0.78114271       0.88800923 </v>
    <v>       0.36643601       0.12423713       0.48905844 </v>
    <v>       0.38320480       0.64610485       0.99550307 </v>
    <v>       0.61881486       0.38031051       0.47062124 </v>
    <v>       0.89400652       0.63616669       0.00855134 </v>
    <v>       0.96473677       0.01243371       0.11512197 </v>
    <v>       0.62446722       0.12641822       0.75254101 </v>
    <v>       0.03743852       0.50184461       0.14085705 </v>
    <v>       0.98153016       0.48871806       0.62325319 </v>
    <v>       0.53105807       0.00023457       0.11401532 </v>
    <v>       0.49948533       0.01534757       0.62305400 </v>
    <v>       0.46734194       0.49942616       0.13820379 </v>
    <v>       0.62661035       0.61787604       0.00855647 </v>
    <v>       0.99046764       0.02196364       0.37243900 </v>
    <v>       0.63995537       0.89317620       0.25469934 </v>
    <v>       0.00276906       0.49571585       0.87782889 </v>
    <v>       0.49458115       0.99592484       0.37239264 </v>
    <v>       0.23474750       0.77183112       0.87082910 </v>
    <v>       0.46181741       0.50482208       0.35792618 </v>
    <v>       0.49904319       0.50903122       0.87451992 </v>
    <v>       0.24671753       0.27708639       0.35547864 </v>
    <v>       0.23420400       0.23654706       0.87678606 </v>
    <v>       0.25469790       0.71743750       0.35959899 </v>
    <v>       0.62808505       0.37615636       0.76281551 </v>
    <v>       0.96351082       0.02110734       0.89694519 </v>
    <v>       0.37130123       0.87175350       0.49546978 </v>
    <v>       0.76301243       0.75976144       0.37620946 </v>
    <v>       0.52715998       0.98545708       0.89115115 </v>
    <v>       0.26527538       0.28449137       0.13523153 </v>
    <v>       0.10464584       0.85383506       0.01129113 </v>
    <v>       0.24041647       0.72159850       0.13715098 </v>
    <v>       0.22518711       0.78176583       0.62804077 </v>
    <v>       0.75299255       0.21878608       0.89147014 </v>
    <v>       0.12289875       0.36288147       0.74874750 </v>
    <v>       0.25652070       0.23621673       0.63095913 </v>
    <v>       0.75347873       0.73858465       0.62379594 </v>
   </varray>
  </structure>
  <varray name="forces" >
   <v>       0.00359988      -0.00461081       0.00284550 </v>
   <v>       0.00551446      -0.00023180      -0.00370607 </v>
   <v>      -0.00336790      -0.00326359      -0.00594927 </v>
   <v>       0.00058363      -0.00281105      -0.00116805 </v>
   <v>      -0.00233236       0.00865352      -0.00814413 </v>
   <v>      -0.00212148       0.00476431       0.00223348 </v>
   <v>       0.00525770      -0.00162136       0.00654566 </v>
   <v>      -0.00407984       0.00363347      -0.01008377 </v>
   <v>       0.00635355      -0.00018928      -0.00395342 </v>
   <v>      -0.00118270      -0.00768123      -0.00395492 </v>
   <v>       0.00208212      -0.00180772       0.00737866 </v>
   <v>      -0.00829222      -0.00591504       0.00446367 </v>
   <v>       0.00547134       0.00350602       0.01617904 </v>
   <v>      -0.00926278       0.00632790      -0.00454141 </v>
   <v>       0.00658980      -0.00275389      -0.00929848 </v>
   <v>      -0.00407328       0.01022855       0.00002988 </v>
   <v>      -0.00127706       0.00645146       0.00301670 </v>
   <v>       0.00211730      -0.00276502      -0.00130396 </v>
   <v>      -0.00051791      -0.00065398      -0.00137028 </v>
   <v>       0.00582764       0.00014458      -0.00634478 </v>
   <v>       0.00803179      -0.00371925       0.00912228 </v>
   <v>       0.01599329      -0.00977055       0.00295004 </v>
   <v>       0.00548623       0.00442660       0.00557851 </v>
   <v>       0.00096596       0.00239733       0.00165820 </v>
   <v>       0.00114777       0.00174978       0.00436888 </v>
   <v>       0.01517147       0.00272223       0.00566213 </v>
   <v>      -0.00751674       0.00001446       0.01019061 </v>
   <v>      -0.00000509      -0.00319710      -0.00594641 </v>
   <v>      -0.00663903      -0.00904270       0.00465588 </v>
   <v>      -0.00118869       0.00739377      -0.00039477 </v>
   <v>      -0.00081977      -0.00481697      -0.00651809 </v>
   <v>      -0.00075005       0.01189312      -0.00223616 </v>
   <v>      -0.01257150      -0.00131366      -0.00426224 </v>
   <v>      -0.00469591       0.00947620      -0.00734084 </v>
   <v>       0.00763514       0.00850367      -0.01506021 </v>
   <v>      -0.00385526      -0.01080556       0.00431289 </v>
   <v>       0.01420976      -0.00071244       0.01242548 </v>
   <v>      -0.01642104      -0.01218154      -0.00273402 </v>
   <v>       0.01140233       0.00512011      -0.01585853 </v>
   <v>       0.00244846      -0.00667458      -0.02343514 </v>
   <v>       0.00478229      -0.00151979      -0.01558445 </v>
   <v>       0.01388540       0.00597276      -0.01492010 </v>
   <v>      -0.00158056      -0.00737642       0.00074505 </v>
   <v>      -0.00681616      -0.00178155       0.00304655 </v>
   <v>       0.00149780      -0.00101747      -0.00116330 </v>
   <v>       0.00806667      -0.01032244       0.00321321 </v>
   <v>      -0.00174326       0.01808967       0.01060531 </v>
   <v>       0.00633208      -0.00214845       0.00788321 </v>
   <v>       0.01032780       0.00038646       0.00162683 </v>
   <v>      -0.00504004      -0.00197987       0.00125674 </v>
   <v>      -0.00502978       0.00553275      -0.01290636 </v>
   <v>      -0.00522619       0.00001078       0.02390804 </v>
   <v>       0.00177760      -0.00345668      -0.01510788 </v>
   <v>      -0.00255406      -0.01364105       0.01185263 </v>
   <v>       0.00315985       0.00195431      -0.00458485 </v>
   <v>      -0.00546300       0.00147289      -0.01433223 </v>
   <v>       0.00736824      -0.00055671       0.02613153 </v>
   <v>      -0.02560841       0.00850127       0.01608689 </v>
   <v>      -0.00127718      -0.01262149      -0.00695788 </v>
   <v>      -0.00575091       0.00030146       0.02487670 </v>
   <v>      -0.00707384       0.00274363       0.00662366 </v>
   <v>      -0.01058468       0.00247647      -0.00168448 </v>
   <v>      -0.00811415      -0.00298912      -0.00128459 </v>
   <v>       0.00097343       0.00633470      -0.00221525 </v>
   <v>      -0.00811795       0.00455176       0.01225242 </v>
   <v>      -0.00694658      -0.00166806      -0.00670878 </v>
   <v>      -0.01135560       0.00003810      -0.01361411 </v>
   <v>      -0.00433666       0.00336068       0.00606187 </v>
   <v>       0.01284865       0.00778117      -0.00231529 </v>
   <v>       0.00201080      -0.00448298      -0.00379890 </v>
   <v>       0.00065730       0.00851777      -0.00278716 </v>
   <v>      -0.00659523      -0.00960735      -0.00126941 </v>
   <v>      -0.00259066       0.00301530      -0.00464868 </v>
   <v>       0.00820331       0.00819979       0.00127876 </v>
   <v>      -0.00899757      -0.01187509      -0.00509396 </v>
   <v>      -0.01634791      -0.00524694       0.01280699 </v>
   <v>       0.00260316      -0.00106006      -0.00905317 </v>
   <v>      -0.00070594      -0.00146759      -0.00707353 </v>
   <v>       0.01018804       0.00125026       0.00129308 </v>
   <v>       0.01626299       0.00149836       0.00656742 </v>
   <v>      -0.00266687       0.00340904       0.00366841 </v>
   <v>       0.00274462       0.00108833      -0.00570449 </v>
   <v>      -0.00774724      -0.00313296      -0.00395139 </v>
   <v>      -0.00923486      -0.00333235      -0.00490632 </v>
   <v>       0.00449704      -0.02093251      -0.00854743 </v>
   <v>      -0.00526743      -0.00492316       0.00520110 </v>
   <v>      -0.00416055      -0.01298849      -0.01436693 </v>
   <v>       0.00844076      -0.01154007       0.00885858 </v>
   <v>      -0.00264558       0.01171088       0.00494663 </v>
   <v>       0.01176107       0.00016461      -0.00607061 </v>
   <v>       0.00704347       0.01639403       0.01065760 </v>
   <v>       0.00752451      -0.00006293      -0.00148596 </v>
   <v>      -0.00233016      -0.00063195      -0.00119692 </v>
   <v>       0.00382240      -0.01276817      -0.00596365 </v>
   <v>       0.00657321       0.00583101      -0.00253219 </v>
   <v>      -0.00717705      -0.00345057      -0.00298604 </v>
   <v>      -0.00837465       0.00904866      -0.01426200 </v>
   <v>       0.01812497       0.00696546       0.00439299 </v>
   <v>       0.00113691       0.01235376       0.00134828 </v>
   <v>      -0.00731121      -0.01126531      -0.00697154 </v>
   <v>       0.00913448      -0.00742713       0.00499081 </v>
   <v>      -0.00415982       0.00385324      -0.00628364 </v>
   <v>       0.00310592       0.01336512       0.02581629 </v>
   <v>       0.00510794      -0.00508254       0.00603507 </v>
   <v>       0.00664376      -0.00594528      -0.00095853 </v>
   <v>       0.00130476       0.00710202      -0.00124077 </v>
   <v>      -0.01092716       0.00721044       0.00559940 </v>
   <v>       0.00249089      -0.01332979      -0.00492768 </v>
   <v>       0.00286762       0.00497639       0.00145987 </v>
   <v>       0.00458938       0.00558878       0.00642762 </v>
   <v>       0.00724524      -0.01131315      -0.00650413 </v>
   <v>       0.00540935      -0.00000298       0.00733573 </v>
   <v>      -0.00079325       0.00122951      -0.00346527 </v>
   <v>       0.01082450      -0.00122454       0.00408677 </v>
   <v>      -0.00392886       0.00264682       0.02192177 </v>
   <v>       0.00624620      -0.00779089       0.01754914 </v>
   <v>       0.00716955      -0.00104054       0.00084043 </v>
   <v>       0.00836823      -0.00533321       0.01868618 </v>
   <v>      -0.00064225       0.00964632      -0.00294173 </v>
   <v>       0.00494700      -0.00583635      -0.01298420 </v>
   <v>       0.00752299       0.00970471      -0.00014385 </v>
   <v>       0.00050848      -0.00814569      -0.00539074 </v>
   <v>      -0.00178233       0.00158811       0.00630193 </v>
   <v>      -0.00384064      -0.00434322      -0.00361673 </v>
   <v>      -0.01496938      -0.00672540      -0.00062100 </v>
   <v>      -0.00991397      -0.00250523      -0.00725168 </v>
   <v>      -0.00025273       0.00325684      -0.00395013 </v>
   <v>      -0.00067928      -0.00150217       0.00394824 </v>
   <v>      -0.00411664       0.00331913      -0.01027299 </v>
   <v>       0.00852754      -0.01393026       0.01383521 </v>
   <v>       0.01150278       0.00682016      -0.01856148 </v>
   <v>      -0.01168096       0.00907712       0.01506839 </v>
   <v>       0.00883707       0.00455079      -0.00052896 </v>
   <v>       0.01157470      -0.00004607       0.00150233 </v>
   <v>      -0.00214370       0.00968908      -0.02550954 </v>
   <v>      -0.00771963       0.01634005      -0.00315775 </v>
   <v>       0.00668584      -0.00914041      -0.00957649 </v>
   <v>      -0.00681784      -0.00305302       0.00085835 </v>
   <v>      -0.00185504      -0.00585898       0.00731478 </v>
   <v>      -0.01133832       0.00450930       0.00992391 </v>
   <v>      -0.01005219       0.00263275      -0.00162240 </v>
   <v>      -0.00473980      -0.01568063      -0.01577452 </v>
   <v>      -0.01869718       0.00240891      -0.00209902 </v>
   <v>       0.00532156       0.00855240       0.00186000 </v>
   <v>      -0.01021296       0.01132301       0.00602064 </v>
   <v>       0.00123774       0.00756925       0.00340504 </v>
   <v>      -0.00643557       0.00333669       0.00528265 </v>
   <v>      -0.00223545      -0.00501593       0.00015950 </v>
  </varray>
  <varray name="stress" >
   <v>      -0.08412069       0.04591067       0.03005952 </v>
   <v>       0.04591064      -0.16734834      -0.02397503 </v>
   <v>       0.03005954      -0.02397497      -0.24272990 </v>
  </varray>
  <energy>
   <i name="e_fr_energy">   -992.31758684 </i>
   <i name="e_wo_entrp">   -992.31758684 </i>
   <i name="e_0_energy">     -0.00000000 </i>
  </energy>
  <time name="totalsc"> 1023.19 1025.94</time>
 </calculation>
 <calculation>
  <scstep>
   <time name="dav">  294.55  294.56</time>
   <time name="total">  298.32  298.43</time>
   <energy>
    <i name="alphaZ">   5558.88955929 </i>
    <i name="ewald"> -62401.07627316 </i>
    <i name="hartreedc"> -19153.26236674 </i>
    <i name="XCdc">   3407.57845078 </i>
    <i name="pawpsdc"> 116776.57135375 </i>
    <i name="pawaedc">-116285.22242814 </i>
    <i name="eentropy">     -0.00000000 </i>
    <i name="bandstr">  -7212.69974395 </i>
    <i name="atom">  78316.90445604 </i>
    <i name="e_fr_energy">   -992.31699213 </i>
    <i name="e_wo_entrp">   -992.31699213 </i>
    <i name="e_0_energy">   -992.31699213 </i>
   </energy>
  </scstep>
  <scstep>
   <time name="diag">   33.34   33.34</time>
   <time name="diis">   51.80   51.80</time>
   <time name="orth">   18.97   18.97</time>
   <time name="total">  107.91  107.92</time>
   <energy>
    <i name="e_fr_energy">   -992.31818130 </i>
    <i name="e_wo_entrp">   -992.31818130 </i>
    <i name="e_0_energy">   -992.31818130 </i>
   </energy>
  </scstep>
  <scstep>
   <time name="diag">   33.36   33.36</time>
   <time name="diis">   43.17   43.17</time>
   <time name="orth">   18.95   18.95</time>
   <time name="total">   99.28   99.32</time>
   <energy>
    <i name="e_fr_energy">   -992.31829075 </i>
    <i name="e_wo_entrp">   -992.31829075 </i>
    <i name="e_0_energy">   -992.31829075 </i>
   </energy>
  </scstep>
  <scstep>
   <time name="diag">   33.34   33.34</time>
   <time name="diis">   32.77   32.77</time>
   <time name="orth">   18.98   18.98</time>
   <time name="total">   88.87   88.98</time>
   <energy>
    <i name="e_fr_energy">   -992.31824545 </i>
    <i name="e_wo_entrp">   -992.31824545 </i>
    <i name="e_0_energy">   -992.31824545 </i>
   </energy>
  </scstep>
  <scstep>
   <time name="diag">   33.33   33.33</time>
   <time name="diis">   32.37   32.38</time>
   <time name="orth">   19.03   19.03</time>
   <time name="total">   88.51   88.55</time>
   <energy>
    <i name="e_fr_energy">   -992.31823218 </i>
    <i name="e_wo_entrp">   -992.31823218 </i>
    <i name="e_0_energy">   -992.31823218 </i>
   </energy>
  </scstep>
  <scstep>
   <time name="diag">   33.34   33.34</time>
   <time name="diis">   31.53   31.53</time>
   <time name="orth">   18.93   18.93</time>
   <time name="total">   87.59   87.74</time>
   <energy>
    <i name="e_fr_energy">   -992.31823734 </i>
    <i name="e_wo_entrp">   -992.31823734 </i>
    <i name="e_0_energy">   -992.31823734 </i>
   </energy>
  </scstep>
  <scstep>
   <time name="diag">   33.44   33.44</time>
   <time name="diis">   30.83   30.84</time>
   <time name="orth">   18.96   18.96</time>
   <time name="total">   87.04   87.08</time>
   <energy>
    <i name="e_fr_energy">   -992.31824006 </i>
    <i name="e_wo_entrp">   -992.31824006 </i>
    <i name="e_0_energy">   -992.31824006 </i>
   </energy>
  </scstep>
  <scstep>
   <time name="diag">   33.39   33.39</time>
   <time name="diis">   29.03   29.03</time>
   <time name="orth">   18.96   18.96</time>
   <time name="total">   81.95   82.01</time>
   <energy>
    <i name="alphaZ">   5558.88955929 </i>
    <i name="ewald"> -62401.07627316 </i>
    <i name="hartreedc"> -19150.16341191 </i>
    <i name="XCdc">   3407.36706409 </i>
    <i name="pawpsdc"> 116814.64115237 </i>
    <i name="pawaedc">-116323.36269681 </i>
    <i name="eentropy">     -0.00000000 </i>
    <i name="bandstr">  -7215.51809227 </i>
    <i name="atom">  78316.90445604 </i>
    <i name="e_fr_energy">   -992.31824236 </i>
    <i name="e_wo_entrp">   -992.31824236 </i>
    <i name="e_0_energy">   -992.31824236 </i>
   </energy>
  </scstep>
  <structure>
   <crystal>
    <varray name="basis" >
     <v>      11.34179525      -0.01881701      -0.01077773 </v>
     <v>      -0.01879870      11.34017651      -0.00538282 </v>
     <v>      -0.01455751      -0.00808067      15.71732091 </v>
    </varray>
    <i name="volume">   2021.52191630 </i>
    <varray name="rec_basis" >
     <v>       0.08816978       0.00014620       0.00008174 </v>
     <v>       0.00014635       0.08818231       0.00004547 </v>
     <v>       0.00006051       0.00003030       0.06362415 </v>
    </varray>
   </crystal>
   <varray name="positions" >
    <v>       0.99695684       0.25452257       0.12093503 </v>
    <v>       0.00341746       0.26085755       0.62982540 </v>
    <v>       0.99879272       0.74121786       0.12828642 </v>
    <v>       0.99311307       0.72367539       0.62724275 </v>
    <v>       0.49636805       0.25724128       0.12622056 </v>
    <v>       0.49500815       0.25508898       0.63133121 </v>
    <v>       0.50277487       0.74768162       0.12235659 </v>
    <v>       0.51140273       0.74532723       0.62539677 </v>
    <v>       0.01622231       0.25315358       0.37684343 </v>
    <v>       0.99948681       0.26635156       0.87157070 </v>
    <v>       0.99913128       0.73470728       0.37821255 </v>
    <v>       0.00110454       0.72575511       0.87185396 </v>
    <v>       0.48745592       0.24814449       0.38410633 </v>
    <v>       0.50138287       0.25981640       0.87161921 </v>
    <v>       0.49850896       0.74915497       0.38020343 </v>
    <v>       0.50621454       0.74522449       0.86589129 </v>
    <v>       0.25017869       0.99331000       0.12884429 </v>
    <v>       0.26443382       0.00889076       0.62302733 </v>
    <v>       0.25129470       0.50289417       0.10729924 </v>
    <v>       0.24522596       0.48874039       0.62884489 </v>
    <v>       0.74878385       0.99597758       0.13894833 </v>
    <v>       0.73604536       0.00300232       0.62228071 </v>
    <v>       0.74392170       0.50855747       0.12274882 </v>
    <v>       0.75372698       0.50277019       0.63601584 </v>
    <v>       0.26167769       0.99472903       0.38082749 </v>
    <v>       0.26216722       0.00438501       0.86890506 </v>
    <v>       0.24978164       0.49692343       0.39801526 </v>
    <v>       0.24554032       0.49715490       0.86514346 </v>
    <v>       0.74725893       0.98818304       0.37845417 </v>
    <v>       0.74356132       0.00139883       0.85807149 </v>
    <v>       0.74996850       0.50974330       0.38042014 </v>
    <v>       0.75527973       0.50045142       0.86700670 </v>
    <v>       0.50375291       0.00131999       0.74783229 </v>
    <v>       0.24605103       0.74611201       0.99451823 </v>
    <v>       0.24904392       0.74663072       0.50807306 </v>
    <v>       0.50867645       0.00149277       0.25125523 </v>
    <v>       0.98849232       0.00416439       0.24905119 </v>
    <v>       0.25023019       0.25741276       0.99841493 </v>
    <v>       0.74850791       0.74824209       0.50087582 </v>
    <v>       0.50699998       0.49985977       0.75069987 </v>
    <v>       0.02955483       0.99958328       0.00562378 </v>
    <v>       0.01302566       0.98184726       0.48697762 </v>
    <v>       0.00014651       0.49309306       0.49997625 </v>
    <v>       0.47165060       0.00417006       0.00266184 </v>
    <v>       0.75076744       0.75744503       0.25071520 </v>
    <v>       0.25217480       0.25237660       0.50919499 </v>
    <v>       0.75381106       0.72417761       0.99983013 </v>
    <v>       0.75736652       0.75122933       0.75027339 </v>
    <v>       0.75050963       0.24982149       0.75029385 </v>
    <v>       0.74388635       0.28102410       0.00029625 </v>
    <v>       0.73302110       0.27097901       0.50586744 </v>
    <v>       0.96918632       0.49323637       0.24875616 </v>
    <v>       0.49829715       0.99706703       0.49783814 </v>
    <v>       0.24610404       0.22157820       0.24445690 </v>
    <v>       0.26016860       0.74009388       0.74681307 </v>
    <v>       0.74763848       0.24295971       0.23275356 </v>
    <v>       0.52786291       0.50464230       0.24999314 </v>
    <v>       0.98264224       0.00627478       0.77176030 </v>
    <v>       0.00627415       0.49878924       0.00068281 </v>
    <v>       0.25222865       0.77706170       0.24935734 </v>
    <v>       0.25771373       0.25158417       0.75282227 </v>
    <v>       0.49798116       0.50027644       0.50219280 </v>
    <v>       0.99800024       0.49436785       0.75112266 </v>
    <v>       0.49170660       0.50400154       0.99668917 </v>
    <v>       0.10143831       0.14066810       0.23595008 </v>
    <v>       0.13342783       0.05179910       0.74640079 </v>
    <v>       0.03121929       0.50673401       0.35897191 </v>
    <v>       0.12512697       0.62768523       0.74659301 </v>
    <v>       0.60826976       0.14433733       0.25679052 </v>
    <v>       0.61193114       0.64902815       0.24594369 </v>
    <v>       0.62618255       0.63034069       0.75625272 </v>
    <v>       0.37377037       0.62829344       0.51446599 </v>
    <v>       0.37867365       0.37544116       0.75268277 </v>
    <v>       0.38159734       0.87619670       0.75218890 </v>
    <v>       0.88751659       0.34758938       0.24856387 </v>
    <v>       0.87198461       0.35337671       0.47013543 </v>
    <v>       0.89140026       0.86461455       0.24768589 </v>
    <v>       0.90815331       0.86174148       0.74675420 </v>
    <v>       0.36597426       0.10709958       0.24151221 </v>
    <v>       0.62410483       0.87322249       0.50260130 </v>
    <v>       0.87809238       0.62375957       0.49182967 </v>
    <v>       0.84979429       0.11081480       0.25904182 </v>
    <v>       0.87538786       0.11948357       0.73220395 </v>
    <v>       0.87002173       0.62017855       0.75844065 </v>
    <v>       0.38319819       0.12282395       0.76404413 </v>
    <v>       0.13089005       0.89388932       0.24787597 </v>
    <v>       0.74545530       0.78459971       0.11048546 </v>
    <v>       0.64407557       0.38313230       0.24610995 </v>
    <v>       0.63492943       0.88181609       0.74228740 </v>
    <v>       0.65316552       0.12664658       0.48218210 </v>
    <v>       0.35608861       0.39148364       0.98796002 </v>
    <v>       0.37404208       0.37528147       0.50732312 </v>
    <v>       0.35418037       0.88662617       0.01092805 </v>
    <v>       0.37802258       0.62374093       0.74145414 </v>
    <v>       0.86869153       0.38768270       0.01352236 </v>
    <v>       0.87217028       0.36868559       0.76203391 </v>
    <v>       0.74820501       0.21187228       0.11023326 </v>
    <v>       0.87461192       0.89779490       0.51554500 </v>
    <v>       0.14808797       0.11410658       0.01723160 </v>
    <v>       0.09444190       0.11601925       0.52176687 </v>
    <v>       0.14123660       0.61231610       0.99149769 </v>
    <v>       0.12801434       0.62064094       0.50808671 </v>
    <v>       0.52274573       0.49228322       0.62577497 </v>
    <v>       0.74427147       0.26478898       0.62352542 </v>
    <v>       0.39456364       0.86310788       0.23997214 </v>
    <v>       0.62441746       0.62772820       0.48937986 </v>
    <v>       0.11199131       0.35758783       0.00343130 </v>
    <v>       0.12241898       0.36732925       0.50305374 </v>
    <v>       0.86102118       0.61915242       0.24037443 </v>
    <v>       0.12713918       0.86416659       0.47519815 </v>
    <v>       0.60257743       0.36563343       0.00764350 </v>
    <v>       0.39488400       0.15043101       0.00249377 </v>
    <v>       0.75026548       0.78114793       0.88799859 </v>
    <v>       0.36648206       0.12423201       0.48907101 </v>
    <v>       0.38318819       0.64611613       0.99557034 </v>
    <v>       0.61884144       0.38027745       0.47067511 </v>
    <v>       0.89403701       0.63616231       0.00855394 </v>
    <v>       0.96477240       0.01241112       0.11517934 </v>
    <v>       0.62446455       0.12645925       0.75253199 </v>
    <v>       0.03745947       0.50181980       0.14081720 </v>
    <v>       0.98156223       0.48875940       0.62325279 </v>
    <v>       0.53106015       0.00019991       0.11399876 </v>
    <v>       0.49947779       0.01535433       0.62307334 </v>
    <v>       0.46732556       0.49940765       0.13819267 </v>
    <v>       0.62654663       0.61784732       0.00855451 </v>
    <v>       0.99042543       0.02195289       0.37241671 </v>
    <v>       0.63995430       0.89319004       0.25468722 </v>
    <v>       0.00276618       0.49570946       0.87784100 </v>
    <v>       0.49456362       0.99593891       0.37236110 </v>
    <v>       0.23478373       0.77177196       0.87087156 </v>
    <v>       0.46186631       0.50485113       0.35786926 </v>
    <v>       0.49899363       0.50906979       0.87456614 </v>
    <v>       0.24675515       0.27710582       0.35547705 </v>
    <v>       0.23425324       0.23654695       0.87679070 </v>
    <v>       0.25468875       0.71747865       0.35952071 </v>
    <v>       0.62805232       0.37622581       0.76280582 </v>
    <v>       0.96353915       0.02106849       0.89691581 </v>
    <v>       0.37127221       0.87174047       0.49547239 </v>
    <v>       0.76300453       0.75973651       0.37623190 </v>
    <v>       0.52711182       0.98547621       0.89118158 </v>
    <v>       0.26523264       0.28450250       0.13522653 </v>
    <v>       0.10462551       0.85376829       0.01124268 </v>
    <v>       0.24033696       0.72160861       0.13714449 </v>
    <v>       0.22520981       0.78180226       0.62804651 </v>
    <v>       0.75294921       0.21883419       0.89148861 </v>
    <v>       0.12290408       0.36291368       0.74875796 </v>
    <v>       0.25649337       0.23623089       0.63097533 </v>
    <v>       0.75346919       0.73856329       0.62379642 </v>
   </varray>
  </structure>
  <varray name="forces" >
   <v>       0.00071559       0.00047373       0.00266055 </v>
   <v>       0.00286202      -0.00177593      -0.00115398 </v>
   <v>       0.00256043      -0.00532022      -0.00458310 </v>
   <v>      -0.00013432       0.00048436       0.00075918 </v>
   <v>      -0.00360024       0.01161926      -0.00840488 </v>
   <v>       0.00374590      -0.00042272       0.00633614 </v>
   <v>      -0.00007430      -0.00603983      -0.00103880 </v>
   <v>       0.00461809       0.00473688      -0.00412715 </v>
   <v>       0.00068297      -0.00110726      -0.00542453 </v>
   <v>      -0.00378592      -0.00258677      -0.00155454 </v>
   <v>       0.00035434      -0.00012932       0.00519628 </v>
   <v>      -0.00524485      -0.00697753       0.00584531 </v>
   <v>       0.00938886       0.00006414       0.00327739 </v>
   <v>      -0.00321686       0.01023949       0.00161861 </v>
   <v>       0.00912222      -0.00448122      -0.01057308 </v>
   <v>      -0.00263706       0.00380672       0.00150110 </v>
   <v>       0.00042617       0.00155307       0.00221182 </v>
   <v>       0.00044000      -0.00346357       0.00384620 </v>
   <v>       0.00124882       0.00320019      -0.00291564 </v>
   <v>       0.00365114       0.00229821      -0.00094698 </v>
   <v>       0.00570284       0.00221868       0.00726483 </v>
   <v>       0.01293303      -0.00856147       0.00624976 </v>
   <v>       0.00413004       0.00099458       0.00032484 </v>
   <v>      -0.00002962       0.00410213       0.00137425 </v>
   <v>       0.00093416       0.00396447       0.00159974 </v>
   <v>       0.01082435      -0.00242546       0.00230532 </v>
   <v>      -0.00354925      -0.00112493       0.00397475 </v>
   <v>       0.00390837       0.00100121       0.00017617 </v>
   <v>      -0.00220431      -0.00110776       0.00105584 </v>
   <v>      -0.01266517       0.00632559      -0.00103493 </v>
   <v>      -0.00006922      -0.00480443      -0.00412707 </v>
   <v>      -0.00754079       0.00975711       0.00605316 </v>
   <v>       0.02084122      -0.00829554      -0.00190174 </v>
   <v>       0.00425744      -0.01560439       0.01367788 </v>
   <v>       0.00112216      -0.00416827       0.00841200 </v>
   <v>       0.00488310       0.00690712      -0.01875697 </v>
   <v>      -0.00449322       0.00269852      -0.00483057 </v>
   <v>       0.01511247       0.01749941       0.01083749 </v>
   <v>       0.00557913       0.00249791       0.01225807 </v>
   <v>       0.00037990       0.00799614       0.01573407 </v>
   <v>       0.00388706      -0.00701981       0.00653527 </v>
   <v>      -0.00112788      -0.00267983      -0.00748516 </v>
   <v>      -0.00465525      -0.00408139       0.00402474 </v>
   <v>      -0.00128807      -0.00423564       0.00489333 </v>
   <v>       0.00504802       0.00030887      -0.00371303 </v>
   <v>       0.00300824      -0.00475782       0.00458215 </v>
   <v>       0.00006911      -0.01092944      -0.01021423 </v>
   <v>      -0.00651813       0.00222352       0.00135102 </v>
   <v>      -0.00805020      -0.00290480       0.00263749 </v>
   <v>       0.00278689       0.00783357      -0.00077715 </v>
   <v>       0.00265090      -0.01008404       0.00969874 </v>
   <v>      -0.00340570      -0.01081539      -0.03308393 </v>
   <v>       0.01062293      -0.00119296       0.00195733 </v>
   <v>       0.00228129      -0.00458852      -0.00755853 </v>
   <v>       0.00384625      -0.00600883       0.00049463 </v>
   <v>      -0.00300670      -0.00449671      -0.01034366 </v>
   <v>       0.01099953      -0.00965809      -0.02907885 </v>
   <v>       0.00065955       0.00400623       0.00271639 </v>
   <v>       0.00010667      -0.00249869       0.00549511 </v>
   <v>      -0.00312714       0.00224602      -0.03366651 </v>
   <v>      -0.00407751       0.00022837       0.00481183 </v>
   <v>       0.00129755       0.00493458       0.00331531 </v>
   <v>      -0.00493187       0.00308857       0.00587537 </v>
   <v>      -0.00450300       0.00486909       0.00155799 </v>
   <v>      -0.00162798       0.00551043       0.01411267 </v>
   <v>      -0.01433876      -0.00070886      -0.00126287 </v>
   <v>       0.00005403      -0.00090854       0.01322327 </v>
   <v>      -0.00305904       0.00536061       0.00345269 </v>
   <v>      -0.00187174      -0.00822969      -0.00021340 </v>
   <v>       0.00813893       0.00221016       0.00068829 </v>
   <v>      -0.00128431       0.00791550      -0.00227885 </v>
   <v>      -0.00503508      -0.00998719      -0.00481197 </v>
   <v>      -0.00582867      -0.00558301      -0.00614353 </v>
   <v>      -0.00272189      -0.00368031       0.00117438 </v>
   <v>      -0.00027534       0.00018261      -0.00115013 </v>
   <v>       0.00520567       0.00256980       0.00723868 </v>
   <v>      -0.00314253      -0.00563580      -0.00490824 </v>
   <v>      -0.00098355       0.00024327      -0.00605890 </v>
   <v>       0.00461048      -0.00098411       0.00151857 </v>
   <v>       0.00618337       0.00887851       0.00135076 </v>
   <v>       0.00274385      -0.00200978       0.00034878 </v>
   <v>       0.00517155      -0.00165281      -0.00401264 </v>
   <v>      -0.00931673       0.00151740      -0.00350391 </v>
   <v>      -0.00014525      -0.00509153      -0.00384430 </v>
   <v>      -0.01061987      -0.00183321      -0.00770640 </v>
   <v>      -0.00270100      -0.00021926       0.01024766 </v>
   <v>      -0.00219301      -0.00030702       0.00939162 </v>
   <v>       0.00235841       0.00009255       0.01267363 </v>
   <v>       0.00003445       0.00659266       0.00534388 </v>
   <v>       0.00219503      -0.00387822      -0.00675160 </v>
   <v>      -0.01104881      -0.00967371       0.00720545 </v>
   <v>       0.00684912       0.00061644      -0.00101299 </v>
   <v>      -0.00624163       0.00632938       0.00037595 </v>
   <v>      -0.00800397      -0.00053422      -0.00937287 </v>
   <v>      -0.00091878      -0.00083394      -0.00261577 </v>
   <v>       0.00092002       0.00134130      -0.00320080 </v>
   <v>      -0.00541323      -0.00432907      -0.00282292 </v>
   <v>       0.01582109       0.00399347       0.00167533 </v>
   <v>      -0.00702304      -0.00248215       0.00106368 </v>
   <v>       0.00403834       0.00314467      -0.00447574 </v>
   <v>       0.00449646      -0.00611896      -0.00340636 </v>
   <v>      -0.00180298       0.00397689      -0.01044571 </v>
   <v>      -0.00253342       0.00896831      -0.01528320 </v>
   <v>       0.00326571      -0.00188259      -0.00919124 </v>
   <v>       0.00235817      -0.00456035       0.00282000 </v>
   <v>      -0.00897791      -0.00232697      -0.00243583 </v>
   <v>       0.00058258      -0.00650795      -0.00174861 </v>
   <v>      -0.00002528      -0.00522972      -0.00117650 </v>
   <v>       0.00045450       0.00626466       0.00452789 </v>
[...]
       <r>   -17.9461     0.0000    32.0000 </r>
       <r>   -17.7913     0.0000    32.0000 </r>
       <r>   -17.6365     0.0000    32.0000 </r>
       <r>   -17.4818     0.0000    32.0000 </r>
       <r>   -17.3270     0.0000    32.0000 </r>
       <r>   -17.1722     0.0000    32.0000 </r>
       <r>   -17.0175     0.0000    32.0000 </r>
       <r>   -16.8627     0.0000    32.0000 </r>
       <r>   -16.7079     0.0000    32.0000 </r>
       <r>   -16.5532     0.0000    32.0000 </r>
       <r>   -16.3984     0.0000    32.0000 </r>
       <r>   -16.2436     0.0000    32.0000 </r>
       <r>   -16.0889     0.0000    32.0000 </r>
       <r>   -15.9341     0.0000    32.0000 </r>
       <r>   -15.7793     0.0000    32.0000 </r>
       <r>   -15.6246     0.0000    32.0000 </r>
       <r>   -15.4698     0.0000    32.0000 </r>
       <r>   -15.3150     0.0000    32.0000 </r>
       <r>   -15.1603     3.8343    32.5934 </r>
       <r>   -15.0055    22.1146    36.0160 </r>
       <r>   -14.8507    42.3038    42.5632 </r>
       <r>   -14.6960    43.3162    49.2671 </r>
       <r>   -14.5412    43.0358    55.9276 </r>
       <r>   -14.3864    43.7171    62.6936 </r>
       <r>   -14.2317    56.3292    71.4115 </r>
       <r>   -14.0769    76.4871    83.2491 </r>
       <r>   -13.9221    77.7529    95.2827 </r>
       <r>   -13.7674    69.0649   105.9716 </r>
       <r>   -13.6126    44.5150   112.8610 </r>
       <r>   -13.4578    19.5402   115.8852 </r>
       <r>   -13.3031     0.7417   116.0000 </r>
       <r>   -13.1483     0.0000   116.0000 </r>
       <r>   -12.9935     0.6240   116.0966 </r>
       <r>   -12.8388    33.4370   121.2715 </r>
       <r>   -12.6840    86.2947   134.6270 </r>
       <r>   -12.5292   123.9386   153.8086 </r>
       <r>   -12.3745   111.0184   170.9905 </r>
       <r>   -12.2197    86.6014   184.3935 </r>
       <r>   -12.0649    60.4733   193.7528 </r>
       <r>   -11.9102    49.2090   201.3687 </r>
       <r>   -11.7554    35.8453   206.9164 </r>
       <r>   -11.6006    19.7670   209.9756 </r>
       <r>   -11.4459    13.0739   211.9990 </r>
       <r>   -11.2911     0.0062   212.0000 </r>
       <r>   -11.1363     0.0000   212.0000 </r>
       <r>   -10.9816     0.0000   212.0000 </r>
       <r>   -10.8268     0.0000   212.0000 </r>
       <r>   -10.6720     0.0000   212.0000 </r>
       <r>   -10.5173     0.0000   212.0000 </r>
       <r>   -10.3625     0.0000   212.0000 </r>
       <r>   -10.2077     0.0000   212.0000 </r>
       <r>   -10.0530     0.0000   212.0000 </r>
       <r>    -9.8982     0.0000   212.0000 </r>
       <r>    -9.7434     0.0000   212.0000 </r>
       <r>    -9.5887     0.0000   212.0000 </r>
       <r>    -9.4339     0.0000   212.0000 </r>
       <r>    -9.2791     0.0000   212.0000 </r>
       <r>    -9.1244     0.0000   212.0000 </r>
       <r>    -8.9696     0.0000   212.0000 </r>
       <r>    -8.8148     0.0000   212.0000 </r>
       <r>    -8.6601     0.0000   212.0000 </r>
       <r>    -8.5053     0.0000   212.0000 </r>
       <r>    -8.3505     0.0000   212.0000 </r>
       <r>    -8.1958     0.0000   212.0000 </r>
       <r>    -8.0410     0.0000   212.0000 </r>
       <r>    -7.8862     0.0000   212.0000 </r>
       <r>    -7.7315     0.0000   212.0000 </r>
       <r>    -7.5767     0.0000   212.0000 </r>
       <r>    -7.4219     0.0000   212.0000 </r>
       <r>    -7.2672     0.0000   212.0000 </r>
       <r>    -7.1124     0.0000   212.0000 </r>
       <r>    -6.9576     0.0000   212.0000 </r>
       <r>    -6.8029     0.0000   212.0000 </r>
       <r>    -6.6481     0.0000   212.0000 </r>
       <r>    -6.4933     0.0000   212.0000 </r>
       <r>    -6.3386     0.0000   212.0000 </r>
       <r>    -6.1838     0.0000   212.0000 </r>
       <r>    -6.0290     0.0000   212.0000 </r>
       <r>    -5.8743     0.0000   212.0000 </r>
       <r>    -5.7195     0.0000   212.0000 </r>
       <r>    -5.5647     0.0000   212.0000 </r>
       <r>    -5.4100     0.0000   212.0000 </r>
       <r>    -5.2552     0.0000   212.0000 </r>
       <r>    -5.1004     0.0000   212.0000 </r>
       <r>    -4.9457     0.0000   212.0000 </r>
       <r>    -4.7909     0.0000   212.0000 </r>
       <r>    -4.6361     0.0000   212.0000 </r>
       <r>    -4.4814     0.0000   212.0000 </r>
       <r>    -4.3266     0.0000   212.0000 </r>
       <r>    -4.1718     0.0000   212.0000 </r>
       <r>    -4.0171     0.0000   212.0000 </r>
       <r>    -3.8623     0.0000   212.0000 </r>
       <r>    -3.7075     0.0000   212.0000 </r>
       <r>    -3.5528     0.0000   212.0000 </r>
       <r>    -3.3980     0.0000   212.0000 </r>
       <r>    -3.2432     0.0000   212.0000 </r>
       <r>    -3.0885     0.0000   212.0000 </r>
       <r>    -2.9337     0.0000   212.0000 </r>
       <r>    -2.7789     0.0000   212.0000 </r>
       <r>    -2.6242     0.0458   212.0071 </r>
       <r>    -2.4694     7.0304   213.0952 </r>
       <r>    -2.3146    13.7711   215.2265 </r>
       <r>    -2.1599    22.2295   218.6668 </r>
       <r>    -2.0051    23.6212   222.3226 </r>
       <r>    -1.8503    27.4193   226.5662 </r>
       <r>    -1.6956    21.2402   229.8535 </r>
       <r>    -1.5408    33.9392   235.1061 </r>
       <r>    -1.3860    47.0557   242.3888 </r>
       <r>    -1.2313    50.0791   250.1393 </r>
       <r>    -1.0765    62.2344   259.7711 </r>
       <r>    -0.9217    70.8930   270.7430 </r>
       <r>    -0.7670    82.3030   283.4808 </r>
       <r>    -0.6122    97.8472   298.6242 </r>
       <r>    -0.4574    86.1278   311.9540 </r>
       <r>    -0.3027    67.8130   322.4491 </r>
       <r>    -0.1479    57.3890   331.3310 </r>
       <r>     0.0069    59.0882   340.4759 </r>
       <r>     0.1616    62.4723   350.1445 </r>
       <r>     0.3164    66.9510   360.5063 </r>
       <r>     0.4712    66.1100   370.7379 </r>
       <r>     0.6259    60.5079   380.1025 </r>
       <r>     0.7807    57.5427   389.0082 </r>
       <r>     0.9355    50.3447   396.7999 </r>
       <r>     1.0902    58.7863   405.8981 </r>
       <r>     1.2450    63.0901   415.6623 </r>
       <r>     1.3998    74.6796   427.2202 </r>
       <r>     1.5545    72.9596   438.5119 </r>
       <r>     1.7093    63.6607   448.3645 </r>
       <r>     1.8641    50.1608   456.1277 </r>
       <r>     2.0188    18.3948   458.9746 </r>
       <r>     2.1736    25.9607   462.9924 </r>
       <r>     2.3284     6.5087   463.9997 </r>
       <r>     2.4831     0.0016   464.0000 </r>
       <r>     2.6379     0.0000   464.0000 </r>
       <r>     2.7927     0.0000   464.0000 </r>
       <r>     2.9474     0.0000   464.0000 </r>
       <r>     3.1022     0.0000   464.0000 </r>
       <r>     3.2570     0.0000   464.0000 </r>
       <r>     3.4117     0.0000   464.0000 </r>
       <r>     3.5665     0.0000   464.0000 </r>
       <r>     3.7213     0.0000   464.0000 </r>
       <r>     3.8760     0.0000   464.0000 </r>
       <r>     4.0308     0.0000   464.0000 </r>
       <r>     4.1856     0.2965   464.0459 </r>
       <r>     4.3403     8.2901   465.3289 </r>
       <r>     4.4951    55.7903   473.9634 </r>
       <r>     4.6499    78.5595   486.1218 </r>
       <r>     4.8046    78.2308   498.2293 </r>
       <r>     4.9594    71.4453   509.2867 </r>
       <r>     5.1142    83.9980   522.2867 </r>
       <r>     5.2689    81.9775   534.9741 </r>
       <r>     5.4237    76.0843   546.7494 </r>
       <r>     5.5785    72.8903   558.0304 </r>
       <r>     5.7332    70.7462   568.9795 </r>
       <r>     5.8880    74.0241   580.4360 </r>
       <r>     6.0428    83.2043   593.3133 </r>
       <r>     6.1975    48.5511   600.8273 </r>
       <r>     6.3523    27.4296   605.0725 </r>
       <r>     6.5071     7.8495   606.2874 </r>
       <r>     6.6618     9.8095   607.8056 </r>
       <r>     6.8166    12.5739   609.7516 </r>
       <r>     6.9714     4.7660   610.4892 </r>
       <r>     7.1261    13.3726   612.5588 </r>
       <r>     7.2809    11.0123   614.2631 </r>
       <r>     7.4357    19.8516   617.3355 </r>
       <r>     7.5904    17.4840   620.0415 </r>
       <r>     7.7452    21.2291   623.3270 </r>
       <r>     7.9000    26.2069   627.3830 </r>
       <r>     8.0547    24.3869   631.1573 </r>
       <r>     8.2095    27.2488   635.3745 </r>
       <r>     8.3643    26.5874   639.4893 </r>
       <r>     8.5190    20.3917   642.6452 </r>
       <r>     8.6738    21.6588   645.9973 </r>
       <r>     8.8286    24.8914   649.8497 </r>
       <r>     8.9833    36.4006   655.4833 </r>
       <r>     9.1381    42.4141   662.0475 </r>
       <r>     9.2929    42.6879   668.6542 </r>
       <r>     9.4476    40.7464   674.9604 </r>
       <r>     9.6024    49.3990   682.6057 </r>
       <r>     9.7572    49.0715   690.2003 </r>
       <r>     9.9119    57.4960   699.0988 </r>
       <r>    10.0667    52.2694   707.1883 </r>
       <r>    10.2215    52.6147   715.3314 </r>
       <r>    10.3762    49.8430   723.0454 </r>
       <r>    10.5310    54.4142   731.4669 </r>
       <r>    10.6858    53.8788   739.8055 </r>
       <r>    10.8405    57.4219   748.6925 </r>
       <r>    10.9953    53.9749   757.0460 </r>
       <r>    11.1501    52.3089   765.1417 </r>
       <r>    11.3048    18.4559   767.9981 </r>
       <r>    11.4596     0.0125   768.0000 </r>
       <r>    11.6144     0.0000   768.0000 </r>
       <r>    11.7691     0.0000   768.0000 </r>
       <r>    11.9239     0.0000   768.0000 </r>
       <r>    12.0787     0.0000   768.0000 </r>
       <r>    12.2334     0.0000   768.0000 </r>
       <r>    12.3882     0.0000   768.0000 </r>
       <r>    12.5430     0.0000   768.0000 </r>
       <r>    12.6977     0.0000   768.0000 </r>
       <r>    12.8525     0.0000   768.0000 </r>
       <r>    13.0073     0.0000   768.0000 </r>
       <r>    13.1620     0.0000   768.0000 </r>
       <r>    13.3168     0.0000   768.0000 </r>
      </set>
     </set>
    </array>
   </total>
  </dos>
 </calculation>
 <structure name="finalpos" >
  <crystal>
   <varray name="basis" >
    <v>      11.34203328      -0.01869704      -0.01061728 </v>
    <v>      -0.01867933      11.34015717      -0.00546998 </v>
    <v>      -0.01433559      -0.00820117      15.71749037 </v>
   </varray>
   <i name="volume">   2021.58280166 </i>
   <varray name="rec_basis" >
    <v>       0.08816793       0.00014527       0.00008049 </v>
    <v>       0.00014541       0.08818246       0.00004615 </v>
    <v>       0.00005961       0.00003079       0.06362346 </v>
   </varray>
  </crystal>
  <varray name="positions" >
   <v>       0.99696895       0.25451126       0.12094722 </v>
   <v>       0.00344190       0.26085093       0.62981568 </v>
   <v>       0.99879264       0.74119157       0.12826433 </v>
   <v>       0.99311480       0.72366941       0.62724218 </v>
   <v>       0.49634933       0.25730355       0.12618485 </v>
   <v>       0.49501531       0.25510027       0.63135099 </v>
   <v>       0.50278833       0.74765667       0.12236679 </v>
   <v>       0.51140798       0.74535324       0.62536700 </v>
   <v>       0.01624105       0.25314958       0.37682279 </v>
   <v>       0.99947058       0.26632148       0.87155935 </v>
   <v>       0.99913825       0.73470235       0.37823933 </v>
   <v>       0.00106462       0.72571596       0.87187676 </v>
   <v>       0.48750259       0.24815397       0.38414452 </v>
   <v>       0.50134762       0.25986805       0.87161443 </v>
   <v>       0.49855727       0.74913233       0.38015981 </v>
   <v>       0.50619492       0.74526461       0.86589507 </v>
   <v>       0.25017643       0.99333235       0.12885577 </v>
   <v>       0.26444107       0.00887156       0.62303399 </v>
   <v>       0.25129747       0.50290321       0.10728947 </v>
   <v>       0.24525366       0.48874869       0.62883007 </v>
   <v>       0.74882460       0.99597523       0.13898343 </v>
   <v>       0.73613201       0.00294734       0.62230193 </v>
   <v>       0.74395025       0.50857230       0.12276071 </v>
   <v>       0.75372956       0.50279048       0.63602213 </v>
   <v>       0.26168372       0.99474754       0.38083980 </v>
   <v>       0.26224324       0.00438353       0.86892191 </v>
   <v>       0.24975091       0.49692011       0.39804388 </v>
   <v>       0.24555346       0.49714978       0.86513223 </v>
   <v>       0.74723401       0.98815525       0.37846546 </v>
   <v>       0.74351517       0.00144013       0.85806848 </v>
   <v>       0.74996622       0.50971426       0.38039778 </v>
   <v>       0.75525168       0.50051591       0.86701792 </v>
   <v>       0.50379566       0.00128614       0.74781964 </v>
   <v>       0.24605414       0.74608140       0.99454039 </v>
   <v>       0.24906910       0.74663317       0.50806287 </v>
   <v>       0.50868409       0.00148988       0.25121558 </v>
   <v>       0.98851223       0.00417266       0.24906185 </v>
   <v>       0.25023455       0.25744039       0.99843897 </v>
   <v>       0.74855580       0.74826418       0.50087766 </v>
   <v>       0.50701327       0.49987112       0.75069610 </v>
   <v>       0.02958077       0.99955465       0.00561182 </v>
   <v>       0.01305712       0.98185294       0.48693096 </v>
   <v>       0.00012583       0.49305978       0.49998792 </v>
   <v>       0.47162877       0.00415034       0.00267983 </v>
   <v>       0.75078897       0.75744325       0.25070386 </v>
   <v>       0.25220576       0.25233408       0.50921272 </v>
   <v>       0.75380752       0.72418490       0.99982399 </v>
   <v>       0.75735937       0.75123143       0.75029119 </v>
   <v>       0.75050745       0.24981221       0.75030369 </v>
   <v>       0.74388320       0.28104640       0.00029673 </v>
   <v>       0.73301757       0.27095774       0.50586833 </v>
   <v>       0.96916084       0.49319795       0.24871568 </v>
   <v>       0.49833906       0.99705393       0.49781553 </v>
   <v>       0.24610540       0.22152691       0.24445939 </v>
   <v>       0.26018999       0.74007751       0.74680566 </v>
   <v>       0.74761348       0.24294775       0.23270111 </v>
   <v>       0.52792062       0.50460693       0.24996725 </v>
   <v>       0.98257960       0.00631102       0.77179712 </v>
   <v>       0.00627074       0.49874794       0.00068406 </v>
   <v>       0.25220309       0.77707017       0.24931708 </v>
   <v>       0.25768143       0.25159502       0.75284750 </v>
   <v>       0.49795844       0.50030014       0.50219793 </v>
   <v>       0.99796213       0.49437116       0.75113517 </v>
   <v>       0.49169337       0.50403516       0.99668886 </v>
   <v>       0.10141380       0.14069763       0.23600892 </v>
   <v>       0.13336065       0.05179326       0.74638608 </v>
   <v>       0.03119247       0.50673063       0.35898173 </v>
   <v>       0.12510537       0.62771251       0.74661175 </v>
   <v>       0.60829936       0.14433184       0.25678805 </v>
   <v>       0.61196529       0.64902525       0.24594000 </v>
   <v>       0.62617948       0.63038974       0.75624137 </v>
   <v>       0.37373543       0.62823436       0.51445037 </v>
   <v>       0.37864642       0.37542817       0.75265771 </v>
   <v>       0.38160743       0.87620416       0.75219375 </v>
   <v>       0.88749380       0.34756078       0.24855270 </v>
   <v>       0.87196370       0.35337323       0.47017684 </v>
   <v>       0.89139551       0.86459156       0.24765807 </v>
   <v>       0.90814810       0.86173882       0.74672691 </v>
   <v>       0.36601474       0.10709867       0.24151918 </v>
   <v>       0.62416584       0.87325752       0.50261557 </v>
   <v>       0.87809548       0.62376076       0.49183635 </v>
   <v>       0.84981939       0.11081106       0.25902185 </v>
   <v>       0.87533697       0.11948127       0.73218869 </v>
   <v>       0.86999922       0.62015227       0.75842195 </v>
   <v>       0.38317052       0.12276574       0.76400876 </v>
   <v>       0.13086760       0.89387729       0.24791244 </v>
   <v>       0.74543773       0.78456710       0.11048397 </v>
   <v>       0.64410457       0.38310450       0.24615885 </v>
   <v>       0.63492309       0.88186825       0.74230994 </v>
   <v>       0.65320092       0.12663323       0.48215392 </v>
   <v>       0.35606683       0.39148927       0.98799651 </v>
   <v>       0.37408427       0.37528396       0.50731775 </v>
   <v>       0.35415107       0.88664834       0.01092735 </v>
   <v>       0.37800303       0.62370761       0.74141845 </v>
   <v>       0.86870509       0.38769380       0.01351093 </v>
   <v>       0.87215681       0.36868102       0.76202000 </v>
   <v>       0.74816567       0.21187773       0.11020109 </v>
   <v>       0.87471314       0.89782546       0.51555604 </v>
   <v>       0.14806611       0.11412770       0.01723597 </v>
   <v>       0.09443864       0.11600227       0.52174243 </v>
   <v>       0.14127384       0.61227640       0.99149661 </v>
   <v>       0.12799838       0.62066373       0.50804805 </v>
   <v>       0.52274510       0.49235407       0.62578268 </v>
   <v>       0.74429575       0.26477033       0.62351243 </v>
   <v>       0.39458777       0.86307805       0.23997894 </v>
   <v>       0.62438780       0.62773717       0.48937086 </v>
   <v>       0.11196601       0.35758052       0.00343542 </v>
   <v>       0.12242505       0.36727892       0.50304225 </v>
   <v>       0.86102984       0.61918724       0.24038980 </v>
   <v>       0.12719153       0.86418135       0.47521251 </v>
   <v>       0.60258210       0.36560391       0.00761922 </v>
   <v>       0.39488074       0.15044960       0.00252218 </v>
   <v>       0.75026786       0.78115941       0.88799561 </v>
   <v>       0.36654030       0.12422331       0.48908711 </v>
   <v>       0.38316511       0.64614658       0.99565799 </v>
   <v>       0.61881585       0.38030034       0.47073411 </v>
   <v>       0.89404071       0.63618687       0.00855219 </v>
   <v>       0.96485267       0.01238170       0.11519907 </v>
   <v>       0.62445401       0.12651877       0.75252248 </v>
   <v>       0.03744097       0.50178114       0.14082891 </v>
   <v>       0.98159743       0.48880241       0.62324063 </v>
   <v>       0.53107254       0.00014594       0.11399821 </v>
   <v>       0.49945946       0.01535765       0.62305107 </v>
   <v>       0.46733714       0.49938099       0.13823702 </v>
   <v>       0.62653003       0.61786173       0.00855525 </v>
   <v>       0.99037588       0.02195221       0.37241752 </v>
   <v>       0.63997438       0.89317343       0.25468312 </v>
   <v>       0.00275634       0.49569520       0.87781979 </v>
   <v>       0.49453705       0.99594130       0.37236386 </v>
   <v>       0.23483494       0.77170404       0.87087513 </v>
   <v>       0.46188123       0.50489675       0.35788298 </v>
   <v>       0.49893124       0.50912763       0.87456296 </v>
   <v>       0.24680070       0.27713855       0.35549945 </v>
   <v>       0.23430953       0.23654578       0.87678112 </v>
   <v>       0.25467944       0.71748450       0.35950737 </v>
   <v>       0.62803307       0.37629434       0.76278889 </v>
   <v>       0.96355346       0.02102351       0.89690771 </v>
   <v>       0.37126348       0.87173013       0.49546068 </v>
   <v>       0.76299668       0.75970937       0.37623186 </v>
   <v>       0.52706488       0.98550041       0.89119727 </v>
   <v>       0.26516426       0.28447775       0.13524747 </v>
   <v>       0.10455158       0.85374348       0.01117553 </v>
   <v>       0.24022718       0.72165499       0.13718923 </v>
   <v>       0.22524797       0.78184402       0.62802857 </v>
   <v>       0.75291051       0.21886795       0.89147982 </v>
   <v>       0.12290069       0.36294660       0.74876737 </v>
   <v>       0.25645421       0.23624962       0.63097882 </v>
   <v>       0.75346074       0.73854236       0.62377824 </v>
  </varray>
 </structure>
</modeling>
