       N       E                     dE             d eps       ncg     rms          rms(c)
DAV:   1    -0.108922959454E+04   -0.10892E+04   -0.23706E-02 13288   0.360E-01    0.258E-02
RMM:   2    -0.108922959379E+04    0.75782E-06   -0.19123E-05  6524   0.769E-03    0.474E-02
RMM:   3    -0.108922959385E+04   -0.62719E-07   -0.50676E-06  6022   0.439E-03    0.426E-03
RMM:   4    -0.108922959387E+04   -0.24389E-07   -0.91457E-07  2398   0.186E-03    0.251E-03
RMM:   5    -0.108922959392E+04   -0.51092E-07   -0.58450E-07  2410   0.195E-03    0.229E-03
RMM:   6    -0.108922959392E+04    0.51077E-08   -0.14694E-07  1835   0.168E-03    0.960E-04
RMM:   7    -0.108922959392E+04   -0.20082E-08   -0.12061E-07  1581   0.171E-03    0.358E-04
RMM:   8    -0.108922959392E+04    0.53551E-08   -0.29487E-08  1316   0.165E-03
   1 F= -.10892296E+04 E0= -.10892296E+04  d E =-.108923E+04  mag=    60.0000
       N       E                     dE             d eps       ncg     rms          rms(c)
DAV:   1    -0.108923031102E+04   -0.71710E-03   -0.14568E+00 12416   0.143E+00    0.617E-01
RMM:   2    -0.108923452295E+04   -0.42119E-02   -0.43471E-02 12379   0.294E-01    0.437E-01
RMM:   3    -0.108923478454E+04   -0.26159E-03   -0.27704E-03 13070   0.897E-02    0.254E-01
RMM:   4    -0.108923448820E+04    0.29634E-03   -0.61407E-04 11357   0.318E-02    0.150E-01
RMM:   5    -0.108923438895E+04    0.99251E-04   -0.37781E-04 10256   0.244E-02    0.505E-02
RMM:   6    -0.108923438864E+04    0.30578E-06   -0.42344E-05  7347   0.114E-02    0.432E-02
RMM:   7    -0.108923438884E+04   -0.20256E-06   -0.19583E-05  7212   0.643E-03    0.220E-02
RMM:   8    -0.108923438747E+04    0.13779E-05   -0.10385E-05  7009   0.523E-03
   2 F= -.10892344E+04 E0= -.10892344E+04  d E =-.479355E-02  mag=    60.0000
       N       E                     dE             d eps       ncg     rms          rms(c)
DAV:   1    -0.108923438252E+04    0.63216E-05   -0.20228E-02 13680   0.169E-01    0.707E-02
RMM:   2    -0.108923444339E+04   -0.60872E-04   -0.61605E-04 11332   0.349E-02    0.490E-02
RMM:   3    -0.108923444691E+04   -0.35162E-05   -0.33051E-05  7066   0.112E-02    0.321E-02
RMM:   4    -0.108923444440E+04    0.25139E-05   -0.12096E-05  6860   0.539E-03    0.187E-02
RMM:   5    -0.108923444242E+04    0.19725E-05   -0.86907E-06  6378   0.411E-03    0.169E-02
RMM:   6    -0.108923444238E+04    0.47119E-07   -0.26832E-06  5035   0.324E-03    0.733E-03
RMM:   7    -0.108923444222E+04    0.15955E-06   -0.35243E-07  2609   0.190E-03    0.299E-03
RMM:   8    -0.108923444206E+04    0.15945E-06   -0.27036E-07  2519   0.188E-03
   3 F= -.10892344E+04 E0= -.10892344E+04  d E =-.484814E-02  mag=    60.0000
       N       E                     dE             d eps       ncg     rms          rms(c)
DAV:   1    -0.108923354255E+04    0.89967E-03   -0.17833E+00 12448   0.159E+00    0.465E-01
RMM:   2    -0.108923801288E+04   -0.44703E-02   -0.48950E-02 12438   0.304E-01    0.315E-01
RMM:   3    -0.108923810721E+04   -0.94332E-04   -0.29477E-03 12962   0.941E-02    0.195E-01
RMM:   4    -0.108923791537E+04    0.19184E-03   -0.57067E-04 11208   0.296E-02    0.109E-01
RMM:   5    -0.108923785242E+04    0.62954E-04   -0.25393E-04  8200   0.209E-02    0.450E-02
RMM:   6    -0.108923785556E+04   -0.31451E-05   -0.55986E-05  7272   0.136E-02    0.484E-02
RMM:   7    -0.108923785754E+04   -0.19747E-05   -0.27180E-05  7169   0.721E-03    0.163E-02
RMM:   8    -0.108923785724E+04    0.29946E-06   -0.13873E-05  7028   0.655E-03
   4 F= -.10892379E+04 E0= -.10892379E+04  d E =-.341518E-02  mag=    60.0000
       N       E                     dE             d eps       ncg     rms          rms(c)
DAV:   1    -0.108923759278E+04    0.26476E-03   -0.21156E-01 12512   0.547E-01    0.160E-01
RMM:   2    -0.108923813264E+04   -0.53986E-03   -0.59033E-03 12410   0.105E-01    0.108E-01
RMM:   3    -0.108923813751E+04   -0.48733E-05   -0.29527E-04  8796   0.330E-02    0.686E-02
RMM:   4    -0.108923811940E+04    0.18114E-04   -0.79674E-05  7189   0.130E-02    0.390E-02
RMM:   5    -0.108923811290E+04    0.64994E-05   -0.42854E-05  7126   0.949E-03    0.265E-02
RMM:   6    -0.108923811389E+04   -0.99109E-06   -0.16154E-05  6922   0.645E-03    0.181E-02
RMM:   7    -0.108923811443E+04   -0.54346E-06   -0.78074E-06  6130   0.412E-03    0.618E-03
RMM:   8    -0.108923811449E+04   -0.60303E-07   -0.46959E-06  5422   0.335E-03
   5 F= -.10892381E+04 E0= -.10892381E+04  d E =-.367243E-02  mag=    60.0000
       N       E                     dE             d eps       ncg     rms          rms(c)
DAV:   1    -0.108923651526E+04    0.15992E-02   -0.17928E+00 12800   0.158E+00    0.453E-01
RMM:   2    -0.108924102187E+04   -0.45066E-02   -0.47425E-02 12582   0.290E-01    0.307E-01
RMM:   3    -0.108924108875E+04   -0.66880E-04   -0.26150E-03 12762   0.906E-02    0.182E-01
RMM:   4    -0.108924094962E+04    0.13913E-03   -0.57504E-04 11318   0.291E-02    0.106E-01
RMM:   5    -0.108924091057E+04    0.39045E-04   -0.23979E-04  7846   0.204E-02    0.483E-02
RMM:   6    -0.108924091837E+04   -0.77993E-05   -0.65542E-05  7210   0.142E-02    0.524E-02
RMM:   7    -0.108924092398E+04   -0.56052E-05   -0.34227E-05  7133   0.819E-03    0.179E-02
RMM:   8    -0.108924092912E+04   -0.51413E-05   -0.19829E-05  7052   0.763E-03
   6 F= -.10892409E+04 E0= -.10892409E+04  d E =-.281463E-02  mag=    60.0000
       N       E                     dE             d eps       ncg     rms          rms(c)
DAV:   1    -0.108923969687E+04    0.12271E-02   -0.69914E-01 12656   0.985E-01    0.282E-01
RMM:   2    -0.108924148300E+04   -0.17861E-02   -0.18645E-02 12586   0.182E-01    0.192E-01
RMM:   3    -0.108924151348E+04   -0.30477E-04   -0.10483E-03 11733   0.572E-02    0.115E-01
RMM:   4    -0.108924145755E+04    0.55930E-04   -0.18123E-04  7475   0.186E-02    0.686E-02
RMM:   5    -0.108924144684E+04    0.10714E-04   -0.95115E-05  7243   0.131E-02    0.280E-02
RMM:   6    -0.108924145194E+04   -0.51033E-05   -0.29778E-05  7123   0.891E-03    0.221E-02
RMM:   7    -0.108924145459E+04   -0.26495E-05   -0.16513E-05  6959   0.561E-03    0.127E-02
RMM:   8    -0.108924145703E+04   -0.24445E-05   -0.95488E-06  6735   0.516E-03
   7 F= -.10892415E+04 E0= -.10892415E+04  d E =-.334254E-02  mag=    60.0000
       N       E                     dE             d eps       ncg     rms          rms(c)
DAV:   1    -0.108923969611E+04    0.17585E-02   -0.16496E+00 12416   0.150E+00    0.377E-01
RMM:   2    -0.108924402824E+04   -0.43321E-02   -0.41919E-02 12583   0.270E-01    0.240E-01
RMM:   3    -0.108924415951E+04   -0.13127E-03   -0.22836E-03 12656   0.844E-02    0.137E-01
RMM:   4    -0.108924405604E+04    0.10347E-03   -0.42593E-04 10124   0.251E-02    0.773E-02
RMM:   5    -0.108924402529E+04    0.30751E-04   -0.16683E-04  7404   0.171E-02    0.338E-02
RMM:   6    -0.108924402977E+04   -0.44848E-05   -0.42760E-05  7160   0.112E-02    0.303E-02
RMM:   7    -0.108924403185E+04   -0.20739E-05   -0.23062E-05  6997   0.643E-03    0.129E-02
RMM:   8    -0.108924403235E+04   -0.50136E-06   -0.13122E-05  6749   0.615E-03
   8 F= -.10892440E+04 E0= -.10892440E+04  d E =-.257531E-02  mag=    60.0000
       N       E                     dE             d eps       ncg     rms          rms(c)
DAV:   1    -0.108923567793E+04    0.83539E-02   -0.37382E+00 12368   0.226E+00    0.567E-01
RMM:   2    -0.108924551629E+04   -0.98384E-02   -0.95158E-02 12588   0.408E-01    0.362E-01
RMM:   3    -0.108924582746E+04   -0.31117E-03   -0.52458E-03 13123   0.127E-01    0.207E-01
RMM:   4    -0.108924559892E+04    0.22854E-03   -0.10085E-03 13464   0.370E-02    0.118E-01
RMM:   5    -0.108924552943E+04    0.69488E-04   -0.42031E-04 10307   0.217E-02    0.393E-02
RMM:   6    -0.108924553386E+04   -0.44290E-05   -0.59846E-05  7269   0.120E-02    0.286E-02
RMM:   7    -0.108924553665E+04   -0.27926E-05   -0.34013E-05  7117   0.750E-03    0.165E-02
RMM:   8    -0.108924553713E+04   -0.47087E-06   -0.20418E-05  7017   0.674E-03
   9 F= -.10892455E+04 E0= -.10892455E+04  d E =-.408009E-02  mag=    60.0000
       N       E                     dE             d eps       ncg     rms          rms(c)
DAV:   1    -0.108924165905E+04    0.38776E-02   -0.23830E+00 12512   0.179E+00    0.436E-01
RMM:   2    -0.108924800958E+04   -0.63505E-02   -0.60498E-02 12528   0.324E-01    0.272E-01
RMM:   3    -0.108924824133E+04   -0.23174E-03   -0.34021E-03 12858   0.102E-01    0.166E-01
RMM:   4    -0.108924812191E+04    0.11942E-03   -0.58482E-04 11578   0.286E-02    0.103E-01
RMM:   5    -0.108924806685E+04    0.55056E-04   -0.30724E-04  8763   0.193E-02    0.320E-02
RMM:   6    -0.108924807103E+04   -0.41786E-05   -0.54014E-05  7201   0.117E-02    0.339E-02
RMM:   7    -0.108924807328E+04   -0.22475E-05   -0.26412E-05  7102   0.742E-03    0.151E-02
RMM:   8    -0.108924807379E+04   -0.51784E-06   -0.16316E-05  6832   0.628E-03
  10 F= -.10892481E+04 E0= -.10892481E+04  d E =-.253667E-02  mag=    60.0000
       N       E                     dE             d eps       ncg     rms          rms(c)
DAV:   1    -0.108924299278E+04    0.50805E-02   -0.21626E+00 12512   0.171E+00    0.416E-01
RMM:   2    -0.108924876134E+04   -0.57686E-02   -0.54953E-02 12529   0.309E-01    0.260E-01
RMM:   3    -0.108924897154E+04   -0.21020E-03   -0.30895E-03 12828   0.969E-02    0.159E-01
RMM:   4    -0.108924886306E+04    0.10848E-03   -0.52380E-04 11068   0.272E-02    0.984E-02
RMM:   5    -0.108924881228E+04    0.50784E-04   -0.28058E-04  8488   0.189E-02    0.312E-02
RMM:   6    -0.108924881648E+04   -0.41997E-05   -0.53072E-05  7192   0.118E-02    0.354E-02
RMM:   7    -0.108924881870E+04   -0.22245E-05   -0.25856E-05  7080   0.737E-03    0.143E-02
RMM:   8    -0.108924881923E+04   -0.53215E-06   -0.15607E-05  6824   0.629E-03
  11 F= -.10892488E+04 E0= -.10892488E+04  d E =-.328211E-02  mag=    60.0000
       N       E                     dE             d eps       ncg     rms          rms(c)
DAV:   1    -0.108924480889E+04    0.40098E-02   -0.25686E+00 12608   0.185E+00    0.406E-01
RMM:   2    -0.108925120988E+04   -0.64010E-02   -0.64955E-02 12648   0.332E-01    0.248E-01
RMM:   3    -0.108925129611E+04   -0.86227E-04   -0.34506E-03 12901   0.102E-01    0.150E-01
RMM:   4    -0.108925116907E+04    0.12704E-03   -0.65365E-04 11921   0.296E-02    0.881E-02
RMM:   5    -0.108925113450E+04    0.34563E-04   -0.25726E-04  8333   0.181E-02    0.319E-02
RMM:   6    -0.108925114090E+04   -0.64023E-05   -0.51041E-05  7177   0.114E-02    0.297E-02
RMM:   7    -0.108925114428E+04   -0.33721E-05   -0.26943E-05  7083   0.710E-03    0.155E-02
RMM:   8    -0.108925114687E+04   -0.25892E-05   -0.16305E-05  6981   0.651E-03
  12 F= -.10892511E+04 E0= -.10892511E+04  d E =-.232763E-02  mag=    60.0000
       N       E                     dE             d eps       ncg     rms          rms(c)
DAV:   1    -0.108923542243E+04    0.15722E-01   -0.69950E+00 12576   0.305E+00    0.671E-01
RMM:   2    -0.108925281876E+04   -0.17396E-01   -0.17664E-01 12626   0.549E-01    0.409E-01
RMM:   3    -0.108925308099E+04   -0.26223E-03   -0.94336E-03 13195   0.169E-01    0.248E-01
RMM:   4    -0.108925274534E+04    0.33565E-03   -0.18352E-03 14395   0.485E-02    0.146E-01
RMM:   5    -0.108925264552E+04    0.99824E-04   -0.70381E-04 12095   0.266E-02    0.490E-02
RMM:   6    -0.108925265847E+04   -0.12946E-04   -0.10146E-04  7428   0.143E-02    0.355E-02
RMM:   7    -0.108925266496E+04   -0.64973E-05   -0.52707E-05  7236   0.879E-03    0.235E-02
RMM:   8    -0.108925266943E+04   -0.44635E-05   -0.34006E-05  7170   0.868E-03
  13 F= -.10892527E+04 E0= -.10892527E+04  d E =-.385019E-02  mag=    60.0000
       N       E                     dE             d eps       ncg     rms          rms(c)
DAV:   1    -0.108924636790E+04    0.62971E-02   -0.38123E+00 12320   0.224E+00    0.476E-01
RMM:   2    -0.108925571995E+04   -0.93520E-02   -0.96203E-02 12814   0.401E-01    0.309E-01
RMM:   3    -0.108925573386E+04   -0.13911E-04   -0.47858E-03 13260   0.119E-01    0.188E-01
RMM:   4    -0.108925553932E+04    0.19454E-03   -0.90371E-04 13042   0.347E-02    0.114E-01
RMM:   5    -0.108925546985E+04    0.69467E-04   -0.39233E-04 10055   0.209E-02    0.349E-02
RMM:   6    -0.108925547630E+04   -0.64417E-05   -0.61822E-05  7251   0.118E-02    0.258E-02
RMM:   7    -0.108925547905E+04   -0.27513E-05   -0.32619E-05  7138   0.753E-03    0.175E-02
RMM:   8    -0.108925547913E+04   -0.81258E-07   -0.20596E-05  6950   0.658E-03
  14 F= -.10892555E+04 E0= -.10892555E+04  d E =-.280970E-02  mag=    60.0000
       N       E                     dE             d eps       ncg     rms          rms(c)
DAV:   1    -0.108924863599E+04    0.68431E-02   -0.32356E+00 12336   0.207E+00    0.438E-01
RMM:   2    -0.108925655806E+04   -0.79221E-02   -0.81473E-02 12781   0.369E-01    0.284E-01
RMM:   3    -0.108925658196E+04   -0.23896E-04   -0.40983E-03 13135   0.110E-01    0.173E-01
RMM:   4    -0.108925641593E+04    0.16603E-03   -0.76445E-04 12526   0.320E-02    0.105E-01
RMM:   5    -0.108925635701E+04    0.58922E-04   -0.33307E-04  9298   0.195E-02    0.317E-02
RMM:   6    -0.108925636245E+04   -0.54470E-05   -0.55099E-05  7223   0.114E-02    0.247E-02
RMM:   7    -0.108925636493E+04   -0.24798E-05   -0.29215E-05  7101   0.717E-03    0.160E-02
RMM:   8    -0.108925636490E+04    0.29715E-07   -0.18116E-05  6929   0.640E-03
  15 F= -.10892564E+04 E0= -.10892564E+04  d E =-.369548E-02  mag=    60.0000
       N       E                     dE             d eps       ncg     rms          rms(c)
DAV:   1    -0.108924797815E+04    0.83868E-02   -0.45090E+00 12552   0.244E+00    0.546E-01
RMM:   2    -0.108925939004E+04   -0.11412E-01   -0.11295E-01 12831   0.431E-01    0.343E-01
RMM:   3    -0.108925948990E+04   -0.99851E-04   -0.54764E-03 13250   0.128E-01    0.203E-01
RMM:   4    -0.108925925304E+04    0.23685E-03   -0.11598E-03 13416   0.389E-02    0.114E-01
RMM:   5    -0.108925919860E+04    0.54439E-04   -0.40126E-04 10493   0.211E-02    0.366E-02
RMM:   6    -0.108925920723E+04   -0.86229E-05   -0.64849E-05  7277   0.118E-02    0.233E-02
RMM:   7    -0.108925921077E+04   -0.35431E-05   -0.35243E-05  7135   0.782E-03    0.171E-02
RMM:   8    -0.108925921297E+04   -0.21958E-05   -0.23216E-05  7028   0.662E-03
  16 F= -.10892592E+04 E0= -.10892592E+04  d E =-.284806E-02  mag=    60.0000
       N       E                     dE             d eps       ncg     rms          rms(c)
DAV:   1    -0.108925483665E+04    0.43741E-02   -0.19583E+00 12608   0.161E+00    0.359E-01
RMM:   2    -0.108925981623E+04   -0.49796E-02   -0.49266E-02 12832   0.284E-01    0.226E-01
RMM:   3    -0.108925985687E+04   -0.40640E-04   -0.24286E-03 12757   0.846E-02    0.134E-01
RMM:   4    -0.108925974739E+04    0.10947E-03   -0.47118E-04 10823   0.259E-02    0.745E-02
RMM:   5    -0.108925972594E+04    0.21453E-04   -0.17086E-04  7621   0.165E-02    0.237E-02
RMM:   6    -0.108925973173E+04   -0.57864E-05   -0.41388E-05  7152   0.104E-02    0.181E-02
RMM:   7    -0.108925973432E+04   -0.25966E-05   -0.24738E-05  6999   0.636E-03    0.116E-02
RMM:   8    -0.108925973588E+04   -0.15608E-05   -0.14917E-05  6810   0.591E-03
  17 F= -.10892597E+04 E0= -.10892597E+04  d E =-.337098E-02  mag=    60.0000
       N       E                     dE             d eps       ncg     rms          rms(c)
DAV:   1    -0.108924858169E+04    0.11153E-01   -0.57517E+00 12544   0.276E+00    0.603E-01
RMM:   2    -0.108926296720E+04   -0.14386E-01   -0.14453E-01 12952   0.487E-01    0.379E-01
RMM:   3    -0.108926298329E+04   -0.16090E-04   -0.67474E-03 13499   0.141E-01    0.231E-01
RMM:   4    -0.108926269691E+04    0.28639E-03   -0.14299E-03 13783   0.435E-02    0.128E-01
RMM:   5    -0.108926264833E+04    0.48574E-04   -0.44590E-04 10994   0.220E-02    0.414E-02
RMM:   6    -0.108926265998E+04   -0.11647E-04   -0.72846E-05  7319   0.123E-02    0.231E-02
RMM:   7    -0.108926266462E+04   -0.46389E-05   -0.41579E-05  7222   0.835E-03    0.188E-02
RMM:   8    -0.108926266724E+04   -0.26232E-05   -0.26154E-05  7048   0.688E-03
  18 F= -.10892627E+04 E0= -.10892627E+04  d E =-.293136E-02  mag=    60.0000
       N       E                     dE             d eps       ncg     rms          rms(c)
DAV:   1    -0.108925432017E+04    0.83444E-02   -0.37180E+00 12544   0.222E+00    0.484E-01
RMM:   2    -0.108926365418E+04   -0.93340E-02   -0.93748E-02 12955   0.392E-01    0.305E-01
RMM:   3    -0.108926365456E+04   -0.37362E-06   -0.43829E-03 13348   0.113E-01    0.185E-01
RMM:   4    -0.108926346707E+04    0.18748E-03   -0.93264E-04 13007   0.352E-02    0.102E-01
RMM:   5    -0.108926343711E+04    0.29966E-04   -0.27561E-04  9276   0.186E-02    0.340E-02
RMM:   6    -0.108926344635E+04   -0.92393E-05   -0.55933E-05  7256   0.114E-02    0.199E-02
RMM:   7    -0.108926345013E+04   -0.37850E-05   -0.36156E-05  7172   0.774E-03    0.163E-02
RMM:   8    -0.108926345209E+04   -0.19581E-05   -0.19492E-05  6930   0.630E-03
  19 F= -.10892635E+04 E0= -.10892635E+04  d E =-.371620E-02  mag=    60.0000
       N       E                     dE             d eps       ncg     rms          rms(c)
DAV:   1    -0.108925089246E+04    0.12558E-01   -0.62405E+00 12608   0.287E+00    0.622E-01
RMM:   2    -0.108926649160E+04   -0.15599E-01   -0.15702E-01 12867   0.510E-01    0.401E-01
RMM:   3    -0.108926654918E+04   -0.57579E-04   -0.75434E-03 13445   0.150E-01    0.246E-01
RMM:   4    -0.108926622497E+04    0.32421E-03   -0.15547E-03 13993   0.452E-02    0.139E-01
RMM:   5    -0.108926615060E+04    0.74368E-04   -0.57430E-04 11857   0.241E-02    0.398E-02
RMM:   6    -0.108926615762E+04   -0.70209E-05   -0.78599E-05  7378   0.128E-02    0.280E-02
RMM:   7    -0.108926616116E+04   -0.35468E-05   -0.42792E-05  7224   0.809E-03    0.203E-02
RMM:   8    -0.108926616152E+04   -0.35256E-06   -0.30646E-05  7156   0.761E-03
  20 F= -.10892662E+04 E0= -.10892662E+04  d E =-.270943E-02  mag=    60.0000
       N       E                     dE             d eps       ncg     rms          rms(c)
DAV:   1    -0.108926201148E+04    0.41497E-02   -0.18585E+00 12752   0.157E+00    0.339E-01
RMM:   2    -0.108926669141E+04   -0.46799E-02   -0.47117E-02 12895   0.279E-01    0.219E-01
RMM:   3    -0.108926669670E+04   -0.52939E-05   -0.22627E-03 12800   0.811E-02    0.135E-01
RMM:   4    -0.108926659348E+04    0.10323E-03   -0.42186E-04 10465   0.250E-02    0.757E-02
RMM:   5    -0.108926657189E+04    0.21583E-04   -0.16134E-04  7541   0.162E-02    0.242E-02
RMM:   6    -0.108926657633E+04   -0.44395E-05   -0.40992E-05  7174   0.106E-02    0.216E-02
RMM:   7    -0.108926657857E+04   -0.22352E-05   -0.25541E-05  7026   0.636E-03    0.118E-02
RMM:   8    -0.108926657874E+04   -0.17555E-06   -0.15084E-05  6891   0.610E-03
  21 F= -.10892666E+04 E0= -.10892666E+04  d E =-.312665E-02  mag=    60.0000
       N       E                     dE             d eps       ncg     rms          rms(c)
DAV:   1    -0.108925628052E+04    0.10298E-01   -0.51922E+00 12600   0.261E+00    0.562E-01
RMM:   2    -0.108926909218E+04   -0.12812E-01   -0.13016E-01 12847   0.462E-01    0.363E-01
RMM:   3    -0.108926908775E+04    0.44311E-05   -0.61938E-03 13264   0.136E-01    0.218E-01
RMM:   4    -0.108926881072E+04    0.27703E-03   -0.13640E-03 13571   0.423E-02    0.120E-01
RMM:   5    -0.108926876568E+04    0.45038E-04   -0.42370E-04 10933   0.215E-02    0.351E-02
RMM:   6    -0.108926877437E+04   -0.86829E-05   -0.64302E-05  7309   0.117E-02    0.218E-02
RMM:   7    -0.108926877867E+04   -0.42998E-05   -0.41596E-05  7173   0.794E-03    0.177E-02
RMM:   8    -0.108926878087E+04   -0.22002E-05   -0.23767E-05  7019   0.673E-03
  22 F= -.10892688E+04 E0= -.10892688E+04  d E =-.220212E-02  mag=    60.0000
       N       E                     dE             d eps       ncg     rms          rms(c)
DAV:   1    -0.108926765039E+04    0.11283E-02   -0.54306E-01 12872   0.844E-01    0.181E-01
RMM:   2    -0.108926901847E+04   -0.13681E-02   -0.13880E-02 12906   0.150E-01    0.117E-01
RMM:   3    -0.108926900576E+04    0.12713E-04   -0.62204E-04 10303   0.435E-02    0.710E-02
RMM:   4    -0.108926897525E+04    0.30507E-04   -0.11970E-04  7255   0.153E-02    0.400E-02
RMM:   5    -0.108926897411E+04    0.11412E-05   -0.57541E-05  7112   0.102E-02    0.161E-02
RMM:   6    -0.108926897673E+04   -0.26197E-05   -0.18805E-05  6829   0.639E-03    0.862E-03
RMM:   7    -0.108926897806E+04   -0.13252E-05   -0.12007E-05  6360   0.448E-03    0.691E-03
RMM:   8    -0.108926897884E+04   -0.78128E-06   -0.68105E-06  5287   0.383E-03
  23 F= -.10892690E+04 E0= -.10892690E+04  d E =-.240009E-02  mag=    60.0000
       N       E                     dE             d eps       ncg     rms          rms(c)
DAV:   1    -0.108926186568E+04    0.71124E-02   -0.36892E+00 12464   0.220E+00    0.505E-01
RMM:   2    -0.108927118460E+04   -0.93189E-02   -0.92196E-02 12781   0.391E-01    0.331E-01
RMM:   3    -0.108927127911E+04   -0.94514E-04   -0.44629E-03 13033   0.117E-01    0.197E-01
RMM:   4    -0.108927107935E+04    0.19976E-03   -0.98409E-04 12970   0.360E-02    0.108E-01
RMM:   5    -0.108927104008E+04    0.39267E-04   -0.32723E-04  9587   0.200E-02    0.331E-02
RMM:   6    -0.108927104731E+04   -0.72251E-05   -0.56898E-05  7261   0.115E-02    0.253E-02
RMM:   7    -0.108927105040E+04   -0.30886E-05   -0.31734E-05  7083   0.735E-03    0.161E-02
RMM:   8    -0.108927105211E+04   -0.17073E-05   -0.19457E-05  6914   0.642E-03
  24 F= -.10892711E+04 E0= -.10892711E+04  d E =-.207327E-02  mag=    60.0000
