<?xml version="1.0" encoding="ISO-8859-1"?>
<modeling>
 <generator>
  <i name="program" type="string">vasp </i>
  <i name="version" type="string">5.4.1  </i>
  <i name="subversion" type="string">05Feb16 (build Jan 25 2017 20:16:33) complex                          parallel </i>
  <i name="platform" type="string">BWXE6 </i>
  <i name="date" type="string">2019 06 26 </i>
  <i name="time" type="string">08:56:24 </i>
 </generator>
 <incar>
  <i type="string" name="SYSTEM"> STF</i>
  <i type="string" name="PREC">normal</i>
  <i type="string" name="ALGO"> Fast</i>
  <i type="int" name="ISPIN">     2</i>
  <i type="int" name="NELM">    40</i>
  <i type="int" name="NELMIN">     8</i>
  <i type="int" name="IBRION">     2</i>
  <i name="EDIFF">      0.00010000</i>
  <i name="EDIFFG">     -0.03000000</i>
  <i type="int" name="NSW">    30</i>
  <i type="int" name="ISIF">     3</i>
  <i name="ENCUT">    520.00000000</i>
  <i type="int" name="NBANDS">   768</i>
  <v name="MAGMOM">      0.60000000      0.60000000      0.60000000      0.60000000      0.60000000      0.60000000      0.60000000      0.60000000      0.60000000      0.60000000      0.60000000      0.60000000      0.60000000      0.60000000      0.60000000      0.60000000      0.60000000      0.60000000      0.60000000      0.60000000
      0.60000000      0.60000000      0.60000000      0.60000000      0.60000000      0.60000000      0.60000000      0.60000000      0.60000000      0.60000000      0.60000000      0.60000000      0.60000000      0.60000000      0.60000000      0.60000000      0.60000000      0.60000000      0.60000000      0.60000000
      0.60000000      0.60000000      0.60000000      0.60000000      0.60000000      0.60000000      0.60000000      0.60000000      5.00000000      5.00000000      5.00000000      5.00000000      5.00000000      5.00000000      5.00000000      5.00000000      5.00000000      5.00000000      5.00000000      5.00000000
      5.00000000      5.00000000      5.00000000      5.00000000      0.60000000      0.60000000      0.60000000      0.60000000      0.60000000      0.60000000      0.60000000      0.60000000      0.60000000      0.60000000      0.60000000      0.60000000      0.60000000      0.60000000      0.60000000      0.60000000
      0.60000000      0.60000000      0.60000000      0.60000000      0.60000000      0.60000000      0.60000000      0.60000000      0.60000000      0.60000000      0.60000000      0.60000000      0.60000000      0.60000000      0.60000000      0.60000000      0.60000000      0.60000000      0.60000000      0.60000000
      0.60000000      0.60000000      0.60000000      0.60000000      0.60000000      0.60000000      0.60000000      0.60000000      0.60000000      0.60000000      0.60000000      0.60000000      0.60000000      0.60000000      0.60000000      0.60000000      0.60000000      0.60000000      0.60000000      0.60000000
      0.60000000      0.60000000      0.60000000      0.60000000      0.60000000      0.60000000      0.60000000      0.60000000      0.60000000      0.60000000      0.60000000      0.60000000      0.60000000      0.60000000      0.60000000      0.60000000      0.60000000      0.60000000      0.60000000      0.60000000
      0.60000000      0.60000000      0.60000000      0.60000000      0.60000000      0.60000000      0.60000000      0.60000000      0.60000000      0.60000000      0.60000000      0.60000000</v>
  <i type="string" name="LREAL"> Auto</i>
  <i type="int" name="ISMEAR">     0</i>
  <i name="SIGMA">      0.05000000</i>
  <i type="int" name="LMAXMIX">     4</i>
  <v type="int" name="KPOINT_BSE">    -1     0     0     0</v>
  <i type="int" name="NELM">    40</i>
  <i type="logical" name="LDAU"> T  </i>
  <v type="int" name="LDAUTYPE">     2</v>
  <v type="int" name="LDAUL">     0     2     2     0</v>
  <v name="LDAUU">      0.00000000      3.00000000      5.00000000      0.00000000</v>
  <v name="LDAUJ">      0.00000000      0.00000000      0.00000000      0.00000000</v>
  <i type="int" name="LDAUPRINT">     1</i>
 </incar>
 <kpoints>
  <generation param="Monkhorst-Pack">
   <v type="int" name="divisions">       2        2        2 </v>
   <v name="usershift">      0.00000000       0.00000000       0.00000000 </v>
   <v name="genvec1">      0.50000000       0.00000000       0.00000000 </v>
   <v name="genvec2">     -0.00000000       0.50000000       0.00000000 </v>
   <v name="genvec3">      0.00000000       0.00000000       0.50000000 </v>
   <v name="shift">      0.50000000       0.50000000       0.50000000 </v>
  </generation>
  <varray name="kpointlist" >
   <v>       0.25000000       0.25000000       0.25000000 </v>
   <v>      -0.25000000       0.25000000       0.25000000 </v>
   <v>       0.25000000      -0.25000000       0.25000000 </v>
   <v>      -0.25000000      -0.25000000       0.25000000 </v>
  </varray>
  <varray name="weights" >
   <v>       0.25000000 </v>
   <v>       0.25000000 </v>
   <v>       0.25000000 </v>
   <v>       0.25000000 </v>
  </varray>
 </kpoints>
 <parameters>
  <separator name="general" >
   <i type="string" name="SYSTEM">STF</i>
   <i type="logical" name="LCOMPAT"> F  </i>
  </separator>
  <separator name="electronic" >
   <i type="string" name="PREC">normal</i>
   <i name="ENMAX">    520.00000000</i>
   <i name="ENAUG">    605.39200000</i>
   <i name="EDIFF">      0.00010000</i>
   <i type="int" name="IALGO">    68</i>
   <i type="int" name="IWAVPR">    11</i>
   <i type="int" name="NBANDS">   768</i>
   <i name="NELECT">   1040.00000000</i>
   <i type="int" name="TURBO">     0</i>
   <i type="int" name="IRESTART">     0</i>
   <i type="int" name="NREBOOT">     0</i>
   <i type="int" name="NMIN">     0</i>
   <i name="EREF">      0.00000000</i>
   <separator name="electronic smearing" >
    <i type="int" name="ISMEAR">     0</i>
    <i name="SIGMA">      0.05000000</i>
    <i name="KSPACING">      0.50000000</i>
    <i type="logical" name="KGAMMA"> T  </i>
   </separator>
   <separator name="electronic projectors" >
    <i type="logical" name="LREAL"> T  </i>
    <v name="ROPT">     -0.00050000     -0.00050000     -0.00050000     -0.00050000</v>
    <i type="int" name="LMAXPAW">  -100</i>
    <i type="int" name="LMAXMIX">     4</i>
    <i type="logical" name="NLSPLINE"> F  </i>
   </separator>
   <separator name="electronic startup" >
    <i type="int" name="ISTART">     1</i>
    <i type="int" name="ICHARG">     0</i>
    <i type="int" name="INIWAV">     1</i>
   </separator>
   <separator name="electronic spin" >
    <i type="int" name="ISPIN">     2</i>
    <i type="logical" name="LNONCOLLINEAR"> F  </i>
    <v name="MAGMOM">      0.60000000      0.60000000      0.60000000      0.60000000      0.60000000      0.60000000      0.60000000      0.60000000      0.60000000      0.60000000      0.60000000      0.60000000      0.60000000      0.60000000      0.60000000      0.60000000      0.60000000      0.60000000      0.60000000      0.60000000
      0.60000000      0.60000000      0.60000000      0.60000000      0.60000000      0.60000000      0.60000000      0.60000000      0.60000000      0.60000000      0.60000000      0.60000000      0.60000000      0.60000000      0.60000000      0.60000000      0.60000000      0.60000000      0.60000000      0.60000000
      0.60000000      0.60000000      0.60000000      0.60000000      0.60000000      0.60000000      0.60000000      0.60000000      5.00000000      5.00000000      5.00000000      5.00000000      5.00000000      5.00000000      5.00000000      5.00000000      5.00000000      5.00000000      5.00000000      5.00000000
      5.00000000      5.00000000      5.00000000      5.00000000      0.60000000      0.60000000      0.60000000      0.60000000      0.60000000      0.60000000      0.60000000      0.60000000      0.60000000      0.60000000      0.60000000      0.60000000      0.60000000      0.60000000      0.60000000      0.60000000
      0.60000000      0.60000000      0.60000000      0.60000000      0.60000000      0.60000000      0.60000000      0.60000000      0.60000000      0.60000000      0.60000000      0.60000000      0.60000000      0.60000000      0.60000000      0.60000000      0.60000000      0.60000000      0.60000000      0.60000000
      0.60000000      0.60000000      0.60000000      0.60000000      0.60000000      0.60000000      0.60000000      0.60000000      0.60000000      0.60000000      0.60000000      0.60000000      0.60000000      0.60000000      0.60000000      0.60000000      0.60000000      0.60000000      0.60000000      0.60000000
      0.60000000      0.60000000      0.60000000      0.60000000      0.60000000      0.60000000      0.60000000      0.60000000      0.60000000      0.60000000      0.60000000      0.60000000      0.60000000      0.60000000      0.60000000      0.60000000      0.60000000      0.60000000      0.60000000      0.60000000
      0.60000000      0.60000000      0.60000000      0.60000000      0.60000000      0.60000000      0.60000000      0.60000000      0.60000000      0.60000000      0.60000000      0.60000000</v>
    <i name="NUPDOWN">     -1.00000000</i>
    <i type="logical" name="LSORBIT"> F  </i>
    <v name="SAXIS">      0.00000000      0.00000000      1.00000000</v>
    <i type="logical" name="LSPIRAL"> F  </i>
    <v name="QSPIRAL">      0.00000000      0.00000000      0.00000000</v>
    <i type="logical" name="LZEROZ"> F  </i>
   </separator>
   <separator name="electronic exchange-correlation" >
    <i type="logical" name="LASPH"> F  </i>
    <i type="logical" name="LMETAGGA"> F  </i>
   </separator>
   <separator name="electronic convergence" >
    <i type="int" name="NELM">    40</i>
    <i type="int" name="NELMDL">     0</i>
    <i type="int" name="NELMIN">     8</i>
    <i name="ENINI">    520.00000000</i>
    <separator name="electronic convergence detail" >
     <i type="logical" name="LDIAG"> T  </i>
     <i type="logical" name="LSUBROT"> F  </i>
     <i name="WEIMIN">      0.00100000</i>
     <i name="EBREAK">      0.00000003</i>
     <i name="DEPER">      0.30000000</i>
     <i type="int" name="NRMM">     4</i>
     <i name="TIME">      0.40000000</i>
    </separator>
   </separator>
   <separator name="electronic mixer" >
    <i name="AMIX">      0.40000000</i>
    <i name="BMIX">      1.00000000</i>
    <i name="AMIN">      0.10000000</i>
    <i name="AMIX_MAG">      1.60000000</i>
    <i name="BMIX_MAG">      1.00000000</i>
    <separator name="electronic mixer details" >
     <i type="int" name="IMIX">     4</i>
     <i type="logical" name="MIXFIRST"> F  </i>
     <i type="int" name="MAXMIX">   -45</i>
     <i name="WC">    100.00000000</i>
     <i type="int" name="INIMIX">     1</i>
     <i type="int" name="MIXPRE">     1</i>
     <i type="int" name="MREMOVE">     5</i>
    </separator>
   </separator>
   <separator name="electronic dipolcorrection" >
    <i type="logical" name="LDIPOL"> F  </i>
    <i type="logical" name="LMONO"> F  </i>
    <i type="int" name="IDIPOL">     0</i>
    <i name="EPSILON">      1.00000000</i>
    <v name="DIPOL">   -100.00000000   -100.00000000   -100.00000000</v>
    <i name="EFIELD">      0.00000000</i>
   </separator>
  </separator>
  <separator name="grids" >
   <i type="int" name="NGX">    64</i>
   <i type="int" name="NGY">    64</i>
   <i type="int" name="NGZ">    90</i>
   <i type="int" name="NGXF">   128</i>
   <i type="int" name="NGYF">   128</i>
   <i type="int" name="NGZF">   180</i>
   <i type="logical" name="ADDGRID"> F  </i>
  </separator>
  <separator name="ionic" >
   <i type="int" name="NSW">    30</i>
   <i type="int" name="IBRION">     2</i>
   <i type="int" name="ISIF">     3</i>
   <i name="PSTRESS">      0.00000000</i>
   <i name="EDIFFG">     -0.03000000</i>
   <i type="int" name="NFREE">     1</i>
   <i name="POTIM">      0.50000000</i>
   <i name="SMASS">     -3.00000000</i>
   <i name="SCALEE">      1.00000000</i>
  </separator>
  <separator name="ionic md" >
   <i name="TEBEG">      0.00010000</i>
   <i name="TEEND">      0.00010000</i>
   <i type="int" name="NBLOCK">     1</i>
   <i type="int" name="KBLOCK">    30</i>
   <i type="int" name="NPACO">   256</i>
   <i name="APACO">     16.00000000</i>
  </separator>
  <separator name="symmetry" >
   <i type="int" name="ISYM">     2</i>
   <i name="SYMPREC">      0.00001000</i>
  </separator>
  <separator name="dos" >
   <i type="logical" name="LORBIT"> F  </i>
   <v name="RWIGS">     -1.00000000     -1.00000000     -1.00000000     -1.00000000</v>
   <i type="int" name="NEDOS">   301</i>
   <i name="EMIN">     10.00000000</i>
   <i name="EMAX">    -10.00000000</i>
   <i name="EFERMI">      0.00000000</i>
  </separator>
  <separator name="writing" >
   <i type="int" name="NWRITE">     2</i>
   <i type="logical" name="LWAVE"> T  </i>
   <i type="logical" name="LCHARG"> T  </i>
   <i type="logical" name="LPARD"> F  </i>
   <i type="logical" name="LVTOT"> F  </i>
   <i type="logical" name="LVHAR"> F  </i>
   <i type="logical" name="LELF"> F  </i>
   <i type="logical" name="LOPTICS"> F  </i>
   <v name="STM">      0.00000000      0.00000000      0.00000000      0.00000000      0.00000000      0.00000000      0.00000000</v>
  </separator>
  <separator name="performance" >
   <i type="int" name="NPAR">     2</i>
   <i type="int" name="NSIM">     4</i>
   <i type="int" name="NBLK">    -1</i>
   <i type="logical" name="LPLANE"> T  </i>
   <i type="logical" name="LSCALAPACK"> T  </i>
   <i type="logical" name="LSCAAWARE"> F  </i>
   <i type="logical" name="LSCALU"> F  </i>
   <i type="logical" name="LASYNC"> F  </i>
   <i type="logical" name="LORBITALREAL"> F  </i>
  </separator>
  <separator name="miscellaneous" >
   <i type="int" name="IDIOT">     3</i>
   <i type="logical" name="LMUSIC"> F  </i>
   <v name="POMASS">     87.62000000     47.88000000     55.84700000     16.00000000</v>
   <v name="DARWINR">      0.00000000      0.00000000      0.00000000      0.00000000</v>
   <v name="DARWINV">      1.00000000      1.00000000      1.00000000      1.00000000</v>
   <i type="logical" name="LCORR"> T  </i>
  </separator>
  <i type="logical" name="GGA_COMPAT"> T  </i>
  <i type="logical" name="LBERRY"> F  </i>
  <i type="int" name="ICORELEVEL">     0</i>
  <i type="logical" name="LDAU"> T  </i>
  <v type="int" name="LDAUTYPE">     2</v>
  <v type="int" name="LDAUL">     0</v>
  <v name="LDAUU">      0.00000000</v>
  <v name="LDAUJ">      0.00000000</v>
  <i type="int" name="LDAUPRINT">     1</i>
  <i type="int" name="I_CONSTRAINED_M">     0</i>
  <separator name="electronic exchange-correlation" >
   <i type="string" name="GGA">--</i>
   <i type="int" name="VOSKOWN">     0</i>
   <i type="logical" name="LHFCALC"> F  </i>
   <i type="string" name="PRECFOCK"></i>
   <i type="logical" name="LSYMGRAD"> F  </i>
   <i type="logical" name="LHFONE"> F  </i>
   <i type="logical" name="LRHFCALC"> F  </i>
   <i type="logical" name="LTHOMAS"> F  </i>
   <i type="logical" name="LMODELHF"> F  </i>
   <i name="ENCUT4O">     -1.00000000</i>
   <i type="int" name="EXXOEP">     0</i>
   <i type="int" name="FOURORBIT">     0</i>
   <i name="AEXX">      0.00000000</i>
   <i name="HFALPHA">      0.00000000</i>
   <i name="MCALPHA">      0.00000000</i>
   <i name="ALDAX">      1.00000000</i>
   <i name="AGGAX">      1.00000000</i>
   <i name="ALDAC">      1.00000000</i>
   <i name="AGGAC">      1.00000000</i>
   <i type="int" name="NKREDX">     1</i>
   <i type="int" name="NKREDY">     1</i>
   <i type="int" name="NKREDZ">     1</i>
   <i type="logical" name="SHIFTRED"> F  </i>
   <i type="logical" name="ODDONLY"> F  </i>
   <i type="logical" name="EVENONLY"> F  </i>
   <i type="int" name="LMAXFOCK">     0</i>
   <i type="int" name="NMAXFOCKAE">     0</i>
   <i type="logical" name="LFOCKAEDFT"> F  </i>
   <i name="HFSCREEN">      0.00000000</i>
   <i name="HFSCREENC">      0.00000000</i>
   <i type="int" name="NBANDSGWLOW">     0</i>
  </separator>
  <separator name="vdW DFT" >
   <i type="logical" name="LUSE_VDW"> F  </i>
   <i name="Zab_VDW">     -0.84910000</i>
   <i name="PARAM1">      0.12340000</i>
   <i name="PARAM2">      1.00000000</i>
   <i name="PARAM3">      0.00000000</i>
  </separator>
  <separator name="model GW" >
   <i type="int" name="MODEL_GW">     0</i>
   <i name="MODEL_EPS0">      7.88260028</i>
   <i name="MODEL_ALPHA">      1.00000000</i>
  </separator>
  <separator name="linear response parameters" >
   <i type="logical" name="LEPSILON"> F  </i>
   <i type="logical" name="LRPA"> F  </i>
   <i type="logical" name="LNABLA"> F  </i>
   <i type="logical" name="LVEL"> F  </i>
   <i type="int" name="KINTER">     0</i>
   <i name="CSHIFT">      0.10000000</i>
   <i name="OMEGAMAX">     -1.00000000</i>
   <i name="DEG_THRESHOLD">      0.00200000</i>
  </separator>
  <separator name="orbital magnetization" >
   <i type="logical" name="NUCIND"> F  </i>
   <v name="MAGPOS">      0.00000000      0.00000000      0.00000000</v>
   <i type="logical" name="LNICSALL"> T  </i>
   <i type="logical" name="ORBITALMAG"> F  </i>
   <i type="logical" name="LMAGBLOCH"> F  </i>
   <i type="logical" name="LCHIMAG"> F  </i>
   <i type="logical" name="LGAUGE"> T  </i>
   <i type="int" name="MAGATOM">     0</i>
   <v name="MAGDIPOL">      0.00000000      0.00000000      0.00000000</v>
   <v name="AVECCONST">      0.00000000      0.00000000      0.00000000</v>
  </separator>
  <separator name="response functions" >
   <i type="logical" name="LADDER"> F  </i>
   <i type="logical" name="LFXC"> F  </i>
   <i type="logical" name="LHARTREE"> T  </i>
   <i type="int" name="IBSE">     0</i>
   <v type="int" name="KPOINT">    -1     0     0     0</v>
   <i type="logical" name="LTCTE"> F  </i>
   <i type="logical" name="LTETE"> F  </i>
   <i type="logical" name="LTRIPLET"> F  </i>
   <i type="logical" name="LFXCEPS"> F  </i>
   <i type="logical" name="LFXHEG"> F  </i>
   <i type="int" name="NATURALO">     0</i>
   <i type="logical" name="L2ORDER"> F  </i>
   <i type="logical" name="LUSEW"> F  </i>
   <i name="ENCUTGW">     -2.00000000</i>
   <i name="ENCUTGWSOFT">     -2.00000000</i>
   <i name="ENCUTLF">     -1.00000000</i>
   <i type="int" name="LMAXMP2">    -1</i>
   <i name="SCISSOR">      0.00000000</i>
   <i type="int" name="NOMEGA">     0</i>
   <i type="int" name="NOMEGAR">     0</i>
   <i type="int" name="NBANDSGW">    -1</i>
   <i type="int" name="NBANDSO">    -1</i>
   <i type="int" name="NBANDSV">    -1</i>
   <i type="int" name="NELM">    40</i>
   <i type="int" name="NELMHF">     1</i>
   <i type="int" name="DIM">     3</i>
   <i type="int" name="ANTIRES">     0</i>
   <i name="OMEGAMAX">    -30.00000000</i>
   <i name="OMEGAMIN">    -30.00000000</i>
   <i name="OMEGATL">   -200.00000000</i>
   <i type="int" name="OMEGAGRID">     0</i>
   <i name="CSHIFT">     -0.10000000</i>
   <i type="logical" name="SELFENERGY"> F  </i>
   <i type="logical" name="LSPECTRAL"> F  </i>
   <i type="logical" name="LSPECTRALGW"> F  </i>
   <i type="logical" name="LSINGLES"> F  </i>
   <i type="logical" name="LFERMIGW"> F  </i>
   <i type="logical" name="ODDONLYGW"> F  </i>
   <i type="logical" name="EVENONLYGW"> F  </i>
   <i type="int" name="NKREDLFX">     1</i>
   <i type="int" name="NKREDLFY">     1</i>
   <i type="int" name="NKREDLFZ">     1</i>
   <i type="int" name="MAXMEM">  1800</i>
   <i type="int" name="TELESCOPE">     0</i>
   <i type="int" name="TAUPAR">     1</i>
   <i type="int" name="OMEGAPAR">    -1</i>
   <i name="LAMBDA">      1.00000000</i>
  </separator>
  <separator name="External order field" >
   <i name="OFIELD_KAPPA">      0.00000000</i>
   <v name="OFIELD_K">      0.00000000      0.00000000      0.00000000</v>
   <i name="OFIELD_Q6_NEAR">      0.00000000</i>
   <i name="OFIELD_Q6_FAR">      0.00000000</i>
   <i name="OFIELD_A">      0.00000000</i>
  </separator>
 </parameters>
 <atominfo>
  <atoms>     152 </atoms>
  <types>       4 </types>
  <array name="atoms" >
   <dimension dim="1">ion</dimension>
   <field type="string">element</field>
   <field type="int">atomtype</field>
   <set>
    <rc><c>Sr</c><c>   1</c></rc>
    <rc><c>Sr</c><c>   1</c></rc>
    <rc><c>Sr</c><c>   1</c></rc>
    <rc><c>Sr</c><c>   1</c></rc>
    <rc><c>Sr</c><c>   1</c></rc>
    <rc><c>Sr</c><c>   1</c></rc>
    <rc><c>Sr</c><c>   1</c></rc>
    <rc><c>Sr</c><c>   1</c></rc>
    <rc><c>Sr</c><c>   1</c></rc>
    <rc><c>Sr</c><c>   1</c></rc>
    <rc><c>Sr</c><c>   1</c></rc>
    <rc><c>Sr</c><c>   1</c></rc>
    <rc><c>Sr</c><c>   1</c></rc>
    <rc><c>Sr</c><c>   1</c></rc>
    <rc><c>Sr</c><c>   1</c></rc>
    <rc><c>Sr</c><c>   1</c></rc>
    <rc><c>Sr</c><c>   1</c></rc>
    <rc><c>Sr</c><c>   1</c></rc>
    <rc><c>Sr</c><c>   1</c></rc>
    <rc><c>Sr</c><c>   1</c></rc>
    <rc><c>Sr</c><c>   1</c></rc>
    <rc><c>Sr</c><c>   1</c></rc>
    <rc><c>Sr</c><c>   1</c></rc>
    <rc><c>Sr</c><c>   1</c></rc>
    <rc><c>Sr</c><c>   1</c></rc>
    <rc><c>Sr</c><c>   1</c></rc>
    <rc><c>Sr</c><c>   1</c></rc>
    <rc><c>Sr</c><c>   1</c></rc>
    <rc><c>Sr</c><c>   1</c></rc>
    <rc><c>Sr</c><c>   1</c></rc>
    <rc><c>Sr</c><c>   1</c></rc>
    <rc><c>Sr</c><c>   1</c></rc>
    <rc><c>Ti</c><c>   2</c></rc>
    <rc><c>Ti</c><c>   2</c></rc>
    <rc><c>Ti</c><c>   2</c></rc>
    <rc><c>Ti</c><c>   2</c></rc>
    <rc><c>Ti</c><c>   2</c></rc>
    <rc><c>Ti</c><c>   2</c></rc>
    <rc><c>Ti</c><c>   2</c></rc>
    <rc><c>Ti</c><c>   2</c></rc>
    <rc><c>Ti</c><c>   2</c></rc>
    <rc><c>Ti</c><c>   2</c></rc>
    <rc><c>Ti</c><c>   2</c></rc>
    <rc><c>Ti</c><c>   2</c></rc>
    <rc><c>Ti</c><c>   2</c></rc>
    <rc><c>Ti</c><c>   2</c></rc>
    <rc><c>Ti</c><c>   2</c></rc>
    <rc><c>Ti</c><c>   2</c></rc>
    <rc><c>Fe</c><c>   3</c></rc>
    <rc><c>Fe</c><c>   3</c></rc>
    <rc><c>Fe</c><c>   3</c></rc>
    <rc><c>Fe</c><c>   3</c></rc>
    <rc><c>Fe</c><c>   3</c></rc>
    <rc><c>Fe</c><c>   3</c></rc>
    <rc><c>Fe</c><c>   3</c></rc>
    <rc><c>Fe</c><c>   3</c></rc>
    <rc><c>Fe</c><c>   3</c></rc>
    <rc><c>Fe</c><c>   3</c></rc>
    <rc><c>Fe</c><c>   3</c></rc>
    <rc><c>Fe</c><c>   3</c></rc>
    <rc><c>Fe</c><c>   3</c></rc>
    <rc><c>Fe</c><c>   3</c></rc>
    <rc><c>Fe</c><c>   3</c></rc>
    <rc><c>Fe</c><c>   3</c></rc>
    <rc><c>O </c><c>   4</c></rc>
    <rc><c>O </c><c>   4</c></rc>
    <rc><c>O </c><c>   4</c></rc>
    <rc><c>O </c><c>   4</c></rc>
    <rc><c>O </c><c>   4</c></rc>
    <rc><c>O </c><c>   4</c></rc>
    <rc><c>O </c><c>   4</c></rc>
    <rc><c>O </c><c>   4</c></rc>
    <rc><c>O </c><c>   4</c></rc>
    <rc><c>O </c><c>   4</c></rc>
    <rc><c>O </c><c>   4</c></rc>
    <rc><c>O </c><c>   4</c></rc>
    <rc><c>O </c><c>   4</c></rc>
    <rc><c>O </c><c>   4</c></rc>
    <rc><c>O </c><c>   4</c></rc>
    <rc><c>O </c><c>   4</c></rc>
    <rc><c>O </c><c>   4</c></rc>
    <rc><c>O </c><c>   4</c></rc>
    <rc><c>O </c><c>   4</c></rc>
    <rc><c>O </c><c>   4</c></rc>
    <rc><c>O </c><c>   4</c></rc>
    <rc><c>O </c><c>   4</c></rc>
    <rc><c>O </c><c>   4</c></rc>
    <rc><c>O </c><c>   4</c></rc>
    <rc><c>O </c><c>   4</c></rc>
    <rc><c>O </c><c>   4</c></rc>
    <rc><c>O </c><c>   4</c></rc>
    <rc><c>O </c><c>   4</c></rc>
    <rc><c>O </c><c>   4</c></rc>
    <rc><c>O </c><c>   4</c></rc>
    <rc><c>O </c><c>   4</c></rc>
    <rc><c>O </c><c>   4</c></rc>
    <rc><c>O </c><c>   4</c></rc>
    <rc><c>O </c><c>   4</c></rc>
    <rc><c>O </c><c>   4</c></rc>
    <rc><c>O </c><c>   4</c></rc>
    <rc><c>O </c><c>   4</c></rc>
    <rc><c>O </c><c>   4</c></rc>
    <rc><c>O </c><c>   4</c></rc>
    <rc><c>O </c><c>   4</c></rc>
    <rc><c>O </c><c>   4</c></rc>
    <rc><c>O </c><c>   4</c></rc>
    <rc><c>O </c><c>   4</c></rc>
    <rc><c>O </c><c>   4</c></rc>
    <rc><c>O </c><c>   4</c></rc>
    <rc><c>O </c><c>   4</c></rc>
    <rc><c>O </c><c>   4</c></rc>
    <rc><c>O </c><c>   4</c></rc>
    <rc><c>O </c><c>   4</c></rc>
    <rc><c>O </c><c>   4</c></rc>
    <rc><c>O </c><c>   4</c></rc>
    <rc><c>O </c><c>   4</c></rc>
    <rc><c>O </c><c>   4</c></rc>
    <rc><c>O </c><c>   4</c></rc>
    <rc><c>O </c><c>   4</c></rc>
    <rc><c>O </c><c>   4</c></rc>
    <rc><c>O </c><c>   4</c></rc>
    <rc><c>O </c><c>   4</c></rc>
    <rc><c>O </c><c>   4</c></rc>
    <rc><c>O </c><c>   4</c></rc>
    <rc><c>O </c><c>   4</c></rc>
    <rc><c>O </c><c>   4</c></rc>
    <rc><c>O </c><c>   4</c></rc>
    <rc><c>O </c><c>   4</c></rc>
    <rc><c>O </c><c>   4</c></rc>
    <rc><c>O </c><c>   4</c></rc>
    <rc><c>O </c><c>   4</c></rc>
    <rc><c>O </c><c>   4</c></rc>
    <rc><c>O </c><c>   4</c></rc>
    <rc><c>O </c><c>   4</c></rc>
    <rc><c>O </c><c>   4</c></rc>
    <rc><c>O </c><c>   4</c></rc>
    <rc><c>O </c><c>   4</c></rc>
    <rc><c>O </c><c>   4</c></rc>
    <rc><c>O </c><c>   4</c></rc>
    <rc><c>O </c><c>   4</c></rc>
    <rc><c>O </c><c>   4</c></rc>
    <rc><c>O </c><c>   4</c></rc>
    <rc><c>O </c><c>   4</c></rc>
    <rc><c>O </c><c>   4</c></rc>
    <rc><c>O </c><c>   4</c></rc>
    <rc><c>O </c><c>   4</c></rc>
    <rc><c>O </c><c>   4</c></rc>
    <rc><c>O </c><c>   4</c></rc>
    <rc><c>O </c><c>   4</c></rc>
    <rc><c>O </c><c>   4</c></rc>
    <rc><c>O </c><c>   4</c></rc>
    <rc><c>O </c><c>   4</c></rc>
   </set>
  </array>
  <array name="atomtypes" >
   <dimension dim="1">type</dimension>
   <field type="int">atomspertype</field>
   <field type="string">element</field>
   <field>mass</field>
   <field>valence</field>
   <field type="string">pseudopotential</field>
   <set>
    <rc><c>  32</c><c>Sr</c><c>     87.62000000</c><c>     10.00000000</c><c>  PAW_PBE Sr_sv 07Sep2000               </c></rc>
    <rc><c>  16</c><c>Ti</c><c>     47.88000000</c><c>      4.00000000</c><c>  PAW_PBE Ti 08Apr2002                  </c></rc>
    <rc><c>  16</c><c>Fe</c><c>     55.84700000</c><c>      8.00000000</c><c>  PAW_PBE Fe 06Sep2000                  </c></rc>
    <rc><c>  88</c><c>O </c><c>     16.00000000</c><c>      6.00000000</c><c>  PAW_PBE O 08Apr2002                   </c></rc>
   </set>
  </array>
 </atominfo>
 <structure name="initialpos" >
  <crystal>
   <varray name="basis" >
    <v>      11.23584483       0.00387814      -0.00879022 </v>
    <v>       0.00376455      11.20906262       0.01049221 </v>
    <v>      -0.01252587       0.01492962      15.85577650 </v>
   </varray>
   <i name="volume">   1996.92540381 </i>
   <varray name="rec_basis" >
    <v>       0.08900094      -0.00002996       0.00007034 </v>
    <v>      -0.00003086       0.08921362      -0.00008403 </v>
    <v>       0.00004936      -0.00005905       0.06306859 </v>
   </varray>
  </crystal>
  <varray name="positions" >
   <v>       0.00715173       0.26068858       0.12372296 </v>
   <v>       0.98809956       0.24689087       0.62251404 </v>
   <v>       0.99803549       0.74020885       0.12412964 </v>
   <v>       0.99451007       0.74642895       0.62450267 </v>
   <v>       0.50310921       0.25174037       0.13119158 </v>
   <v>       0.51282091       0.24175099       0.61393930 </v>
   <v>       0.48481148       0.75443203       0.12683961 </v>
   <v>       0.50348732       0.75787309       0.61818268 </v>
   <v>       0.00171888       0.25262615       0.37809797 </v>
   <v>       0.98927648       0.24787689       0.87632982 </v>
   <v>       0.99101450       0.74407503       0.37803713 </v>
   <v>       0.00540554       0.74810064       0.87066460 </v>
   <v>       0.50608851       0.24936395       0.37694463 </v>
   <v>       0.51515004       0.24329127       0.88108907 </v>
   <v>       0.50451781       0.75223631       0.38027750 </v>
   <v>       0.48424858       0.76021669       0.87325368 </v>
   <v>       0.26221531       0.00368880       0.12361473 </v>
   <v>       0.25735598       0.00271644       0.62319116 </v>
   <v>       0.24986035       0.50525002       0.12834191 </v>
   <v>       0.24769711       0.49604142       0.62008397 </v>
   <v>       0.74206214       0.00825807       0.12352012 </v>
   <v>       0.75461809       0.00043900       0.61816997 </v>
   <v>       0.75034260       0.48936129       0.12540304 </v>
   <v>       0.75163213       0.49266743       0.62052259 </v>
   <v>       0.26287231       0.00734263       0.37627889 </v>
   <v>       0.24982774       0.99119664       0.87568087 </v>
   <v>       0.25478005       0.49161170       0.37534877 </v>
   <v>       0.24006711       0.51552920       0.87300249 </v>
   <v>       0.74731303       0.00302092       0.38464209 </v>
   <v>       0.75580580       0.00271471       0.87567406 </v>
   <v>       0.74670498       0.49376011       0.38336792 </v>
   <v>       0.75879782       0.49007635       0.87307091 </v>
   <v>       0.00167747       0.50068760       0.99923580 </v>
   <v>       0.99846267       0.49661078       0.50038554 </v>
   <v>       0.50270957       0.49459222       0.49976162 </v>
   <v>       0.25754081       0.74435317       0.49712858 </v>
   <v>       0.75008730       0.24859204       0.00085107 </v>
   <v>       0.75573487       0.76092687       0.99993738 </v>
   <v>       0.25498398       0.25563388       0.24659717 </v>
   <v>       0.74668238       0.25577623       0.25206225 </v>
   <v>       0.75278448       0.73613422       0.24927614 </v>
   <v>       0.75642677       0.74728321       0.74962761 </v>
   <v>       0.99358561       0.00737776       0.24488203 </v>
   <v>       0.00128505       0.99732342       0.75114115 </v>
   <v>       0.00518355       0.49813149       0.25120459 </v>
   <v>       0.99772851       0.50042123       0.74853654 </v>
   <v>       0.51379859       0.99280522       0.74936660 </v>
   <v>       0.50592949       0.51659801       0.75044140 </v>
   <v>       0.99720417       0.00987668       0.00405371 </v>
   <v>       0.99788063       0.00734118       0.50046044 </v>
   <v>       0.49739756       0.00011637       0.00081705 </v>
   <v>       0.50355309       0.00109992       0.49722830 </v>
   <v>       0.49820157       0.49840907       0.99852096 </v>
   <v>       0.24926359       0.23941318       0.99742729 </v>
   <v>       0.25423876       0.24572994       0.49385566 </v>
   <v>       0.25800274       0.74173628       0.00266713 </v>
   <v>       0.75159394       0.24740250       0.50007042 </v>
   <v>       0.75021001       0.74982988       0.50086820 </v>
   <v>       0.22908525       0.25512459       0.75857770 </v>
   <v>       0.25333712       0.74194001       0.25218504 </v>
   <v>       0.24403098       0.75293466       0.74628957 </v>
   <v>       0.74912915       0.24747945       0.74879161 </v>
   <v>       0.48965669       0.00734602       0.24979107 </v>
   <v>       0.50010398       0.50428555       0.25255157 </v>
   <v>       0.12003795       0.13007220       0.23786663 </v>
   <v>       0.11192350       0.13609279       0.76086865 </v>
   <v>       0.09924598       0.64802228       0.25116818 </v>
   <v>       0.10360927       0.64083069       0.74974676 </v>
   <v>       0.62454264       0.12984448       0.24839192 </v>
   <v>       0.59889985       0.14346627       0.75152623 </v>
   <v>       0.59982403       0.65547223       0.24915875 </v>
   <v>       0.60093817       0.65087880       0.74916084 </v>
   <v>       0.38942516       0.36549413       0.25197558 </v>
   <v>       0.36878609       0.87145053       0.25006883 </v>
   <v>       0.38420802       0.87056185       0.74787796 </v>
   <v>       0.89178425       0.36205802       0.24571853 </v>
   <v>       0.88994115       0.36146274       0.75335471 </v>
   <v>       0.87259992       0.86754545       0.24062444 </v>
   <v>       0.88916170       0.85526718       0.75605333 </v>
   <v>       0.36740492       0.12311689       0.24641574 </v>
   <v>       0.35556498       0.60942997       0.25075930 </v>
   <v>       0.35294186       0.60445963       0.74799619 </v>
   <v>       0.87057982       0.11637682       0.24333164 </v>
   <v>       0.86223113       0.10471258       0.75457374 </v>
   <v>       0.85484389       0.60640390       0.25118678 </v>
   <v>       0.85254040       0.60502405       0.74883472 </v>
   <v>       0.14012816       0.39279151       0.24637299 </v>
   <v>       0.14186272       0.39795732       0.75035179 </v>
   <v>       0.13668170       0.89061519       0.75296631 </v>
   <v>       0.63937483       0.39235076       0.25036070 </v>
   <v>       0.62489187       0.39100997       0.75575133 </v>
   <v>       0.64523151       0.89228162       0.75412055 </v>
   <v>       0.36641247       0.38371208       0.49866498 </v>
   <v>       0.35563158       0.88762393       0.00242144 </v>
   <v>       0.36064398       0.88401511       0.49763001 </v>
   <v>       0.87754713       0.37423795       0.00045451 </v>
   <v>       0.87196377       0.37888006       0.49949499 </v>
   <v>       0.87520264       0.87523978       0.00428797 </v>
   <v>       0.89333683       0.87085860       0.49634004 </v>
   <v>       0.14084160       0.10936962       0.99714894 </v>
   <v>       0.14298861       0.10047789       0.50298635 </v>
   <v>       0.10939018       0.64118277       0.99937769 </v>
   <v>       0.12432523       0.62643862       0.49877434 </v>
   <v>       0.63806913       0.11484830       0.99789297 </v>
   <v>       0.63582905       0.11755531       0.49925036 </v>
   <v>       0.62590537       0.61897930       0.50630169 </v>
   <v>       0.13415489       0.38251534       0.99119845 </v>
   <v>       0.12012004       0.36274032       0.51211088 </v>
   <v>       0.61925433       0.38164943       0.99354675 </v>
   <v>       0.62003181       0.37019852       0.50035102 </v>
   <v>       0.60966634       0.85443503       0.98945515 </v>
   <v>       0.62324225       0.87029981       0.50798422 </v>
   <v>       0.39538712       0.14752226       0.01138049 </v>
   <v>       0.38784639       0.13449635       0.48792695 </v>
   <v>       0.37931790       0.61825255       0.00467165 </v>
   <v>       0.37869659       0.63291829       0.49778899 </v>
   <v>       0.88382207       0.13144805       0.01331423 </v>
   <v>       0.88713626       0.12956346       0.48955617 </v>
   <v>       0.85273855       0.61647896       0.00873675 </v>
   <v>       0.87511583       0.62319094       0.49215592 </v>
   <v>       0.03368344       0.96523691       0.12509398 </v>
   <v>       0.00191413       0.99569843       0.62685022 </v>
   <v>       0.00376719       0.49984313       0.12424324 </v>
   <v>       0.99372324       0.50363864       0.62505165 </v>
   <v>       0.51952192       0.98000190       0.13049707 </v>
   <v>       0.49055027       0.00762128       0.62883328 </v>
   <v>       0.50449050       0.49760377       0.11504195 </v>
   <v>       0.48807496       0.49143622       0.62986777 </v>
   <v>       0.02946088       0.97500423       0.36043369 </v>
   <v>       0.00399235       0.98524222       0.88361859 </v>
   <v>       0.00738554       0.49067702       0.37434783 </v>
   <v>       0.99273825       0.50787988       0.87569044 </v>
   <v>       0.51968873       0.98184206       0.36724196 </v>
   <v>       0.48144863       0.01053030       0.87077865 </v>
   <v>       0.50312571       0.50295908       0.37678310 </v>
   <v>       0.48237897       0.49959037       0.87899930 </v>
   <v>       0.23752519       0.25341796       0.37019395 </v>
   <v>       0.29095105       0.26318155       0.87088464 </v>
   <v>       0.22174022       0.77318198       0.37710026 </v>
   <v>       0.24343794       0.75540310       0.87976797 </v>
   <v>       0.75266519       0.25383369       0.37233931 </v>
   <v>       0.75601668       0.24557232       0.87768203 </v>
   <v>       0.73716173       0.76551080       0.36836449 </v>
   <v>       0.74512386       0.73309368       0.87791295 </v>
   <v>       0.25618077       0.27205883       0.12000732 </v>
   <v>       0.30034807       0.23657199       0.65516535 </v>
   <v>       0.23048417       0.76157224       0.12534917 </v>
   <v>       0.23034293       0.76622794       0.61711662 </v>
   <v>       0.74252093       0.25712946       0.12404309 </v>
   <v>       0.75612950       0.24741707       0.62614490 </v>
   <v>       0.72548731       0.75305418       0.12407577 </v>
   <v>       0.75522733       0.75100125       0.62847089 </v>
  </varray>
 </structure>
 <calculation>
  <scstep>
   <time name="dav">  604.22  604.20</time>
   <time name="total">  611.41  611.44</time>
   <energy>
    <i name="alphaZ">   5639.78878278 </i>
    <i name="ewald"> -62316.73851978 </i>
    <i name="hartreedc"> -17332.29214685 </i>
    <i name="XCdc">   3183.61421231 </i>
    <i name="pawpsdc"> 114429.89466468 </i>
    <i name="pawaedc">-113631.62811203 </i>
    <i name="eentropy">     -0.00000000 </i>
    <i name="bandstr">  -7077.36099737 </i>
    <i name="atom">  76050.17612637 </i>
    <i name="e_fr_energy">  -1054.54598989 </i>
    <i name="e_wo_entrp">  -1054.54598989 </i>
    <i name="e_0_energy">  -1054.54598989 </i>
   </energy>
  </scstep>
  <scstep>
   <time name="diag">   64.50   64.53</time>
   <time name="diis">   60.88   60.88</time>
   <time name="orth">   33.06   33.06</time>
   <time name="total">  165.70  165.77</time>
   <energy>
    <i name="e_fr_energy">  -1054.54598818 </i>
    <i name="e_wo_entrp">  -1054.54598818 </i>
    <i name="e_0_energy">  -1054.54598818 </i>
   </energy>
  </scstep>
  <scstep>
   <time name="diag">   64.51   64.51</time>
   <time name="diis">   58.94   58.94</time>
   <time name="orth">   33.08   33.08</time>
   <time name="total">  163.79  163.85</time>
   <energy>
    <i name="e_fr_energy">  -1054.54598850 </i>
    <i name="e_wo_entrp">  -1054.54598850 </i>
    <i name="e_0_energy">  -1054.54598850 </i>
   </energy>
  </scstep>
  <scstep>
   <time name="diag">   64.56   64.57</time>
   <time name="diis">   49.13   49.13</time>
   <time name="orth">   33.08   33.08</time>
   <time name="total">  154.04  154.12</time>
   <energy>
    <i name="e_fr_energy">  -1054.54598870 </i>
    <i name="e_wo_entrp">  -1054.54598870 </i>
    <i name="e_0_energy">  -1054.54598870 </i>
   </energy>
  </scstep>
  <scstep>
   <time name="diag">   64.46   64.49</time>
   <time name="diis">   49.04   49.04</time>
   <time name="orth">   33.04   33.04</time>
   <time name="total">  153.80  153.89</time>
   <energy>
    <i name="e_fr_energy">  -1054.54598889 </i>
    <i name="e_wo_entrp">  -1054.54598889 </i>
    <i name="e_0_energy">  -1054.54598889 </i>
   </energy>
  </scstep>
  <scstep>
   <time name="diag">   64.62   64.62</time>
   <time name="diis">   46.05   46.05</time>
   <time name="orth">   33.11   33.11</time>
   <time name="total">  151.00  151.03</time>
   <energy>
    <i name="e_fr_energy">  -1054.54598903 </i>
    <i name="e_wo_entrp">  -1054.54598903 </i>
    <i name="e_0_energy">  -1054.54598903 </i>
   </energy>
  </scstep>
  <scstep>
   <time name="diag">   64.52   64.52</time>
   <time name="diis">   45.95   45.96</time>
   <time name="orth">   33.20   33.20</time>
   <time name="total">  150.89  151.00</time>
   <energy>
    <i name="e_fr_energy">  -1054.54598913 </i>
    <i name="e_wo_entrp">  -1054.54598913 </i>
    <i name="e_0_energy">  -1054.54598913 </i>
   </energy>
  </scstep>
  <scstep>
   <time name="diag">   64.59   64.62</time>
   <time name="diis">   44.84   44.84</time>
   <time name="orth">   33.22   33.22</time>
   <time name="total">  143.70  143.78</time>
   <energy>
    <i name="alphaZ">   5639.78878278 </i>
    <i name="ewald"> -62316.73851978 </i>
    <i name="hartreedc"> -17332.28212563 </i>
    <i name="XCdc">   3183.61482981 </i>
    <i name="pawpsdc"> 114429.57984929 </i>
    <i name="pawaedc">-113631.30738287 </i>
    <i name="eentropy">     -0.00000000 </i>
    <i name="bandstr">  -7077.37754917 </i>
    <i name="atom">  76050.17612637 </i>
    <i name="e_fr_energy">  -1054.54598920 </i>
    <i name="e_wo_entrp">  -1054.54598920 </i>
    <i name="e_0_energy">  -1054.54598920 </i>
   </energy>
  </scstep>
  <structure>
   <crystal>
    <varray name="basis" >
     <v>      11.23584483       0.00387814      -0.00879022 </v>
     <v>       0.00376455      11.20906262       0.01049221 </v>
     <v>      -0.01252587       0.01492962      15.85577650 </v>
    </varray>
    <i name="volume">   1996.92540381 </i>
    <varray name="rec_basis" >
     <v>       0.08900094      -0.00002996       0.00007034 </v>
     <v>      -0.00003086       0.08921362      -0.00008403 </v>
     <v>       0.00004936      -0.00005905       0.06306859 </v>
    </varray>
   </crystal>
   <varray name="positions" >
    <v>       0.00715173       0.26068858       0.12372296 </v>
    <v>       0.98809956       0.24689087       0.62251404 </v>
    <v>       0.99803549       0.74020885       0.12412964 </v>
    <v>       0.99451007       0.74642895       0.62450267 </v>
    <v>       0.50310921       0.25174037       0.13119158 </v>
    <v>       0.51282091       0.24175099       0.61393930 </v>
    <v>       0.48481148       0.75443203       0.12683961 </v>
    <v>       0.50348732       0.75787309       0.61818268 </v>
    <v>       0.00171888       0.25262615       0.37809797 </v>
    <v>       0.98927648       0.24787689       0.87632982 </v>
    <v>       0.99101450       0.74407503       0.37803713 </v>
    <v>       0.00540554       0.74810064       0.87066460 </v>
    <v>       0.50608851       0.24936395       0.37694463 </v>
    <v>       0.51515004       0.24329127       0.88108907 </v>
    <v>       0.50451781       0.75223631       0.38027750 </v>
    <v>       0.48424858       0.76021669       0.87325368 </v>
    <v>       0.26221531       0.00368880       0.12361473 </v>
    <v>       0.25735598       0.00271644       0.62319116 </v>
    <v>       0.24986035       0.50525002       0.12834191 </v>
    <v>       0.24769711       0.49604142       0.62008397 </v>
    <v>       0.74206214       0.00825807       0.12352012 </v>
    <v>       0.75461809       0.00043900       0.61816997 </v>
    <v>       0.75034260       0.48936129       0.12540304 </v>
    <v>       0.75163213       0.49266743       0.62052259 </v>
    <v>       0.26287231       0.00734263       0.37627889 </v>
    <v>       0.24982774       0.99119664       0.87568087 </v>
    <v>       0.25478005       0.49161170       0.37534877 </v>
    <v>       0.24006711       0.51552920       0.87300249 </v>
    <v>       0.74731303       0.00302092       0.38464209 </v>
    <v>       0.75580580       0.00271471       0.87567406 </v>
    <v>       0.74670498       0.49376011       0.38336792 </v>
    <v>       0.75879782       0.49007635       0.87307091 </v>
    <v>       0.00167747       0.50068760       0.99923580 </v>
    <v>       0.99846267       0.49661078       0.50038554 </v>
    <v>       0.50270957       0.49459222       0.49976162 </v>
    <v>       0.25754081       0.74435317       0.49712858 </v>
    <v>       0.75008730       0.24859204       0.00085107 </v>
    <v>       0.75573487       0.76092687       0.99993738 </v>
    <v>       0.25498398       0.25563388       0.24659717 </v>
    <v>       0.74668238       0.25577623       0.25206225 </v>
    <v>       0.75278448       0.73613422       0.24927614 </v>
    <v>       0.75642677       0.74728321       0.74962761 </v>
    <v>       0.99358561       0.00737776       0.24488203 </v>
    <v>       0.00128505       0.99732342       0.75114115 </v>
    <v>       0.00518355       0.49813149       0.25120459 </v>
    <v>       0.99772851       0.50042123       0.74853654 </v>
    <v>       0.51379859       0.99280522       0.74936660 </v>
    <v>       0.50592949       0.51659801       0.75044140 </v>
    <v>       0.99720417       0.00987668       0.00405371 </v>
    <v>       0.99788063       0.00734118       0.50046044 </v>
    <v>       0.49739756       0.00011637       0.00081705 </v>
    <v>       0.50355309       0.00109992       0.49722830 </v>
    <v>       0.49820157       0.49840907       0.99852096 </v>
    <v>       0.24926359       0.23941318       0.99742729 </v>
    <v>       0.25423876       0.24572994       0.49385566 </v>
    <v>       0.25800274       0.74173628       0.00266713 </v>
    <v>       0.75159394       0.24740250       0.50007042 </v>
    <v>       0.75021001       0.74982988       0.50086820 </v>
    <v>       0.22908525       0.25512459       0.75857770 </v>
    <v>       0.25333712       0.74194001       0.25218504 </v>
    <v>       0.24403098       0.75293466       0.74628957 </v>
    <v>       0.74912915       0.24747945       0.74879161 </v>
    <v>       0.48965669       0.00734602       0.24979107 </v>
    <v>       0.50010398       0.50428555       0.25255157 </v>
    <v>       0.12003795       0.13007220       0.23786663 </v>
    <v>       0.11192350       0.13609279       0.76086865 </v>
    <v>       0.09924598       0.64802228       0.25116818 </v>
    <v>       0.10360927       0.64083069       0.74974676 </v>
    <v>       0.62454264       0.12984448       0.24839192 </v>
    <v>       0.59889985       0.14346627       0.75152623 </v>
    <v>       0.59982403       0.65547223       0.24915875 </v>
    <v>       0.60093817       0.65087880       0.74916084 </v>
    <v>       0.38942516       0.36549413       0.25197558 </v>
    <v>       0.36878609       0.87145053       0.25006883 </v>
    <v>       0.38420802       0.87056185       0.74787796 </v>
    <v>       0.89178425       0.36205802       0.24571853 </v>
    <v>       0.88994115       0.36146274       0.75335471 </v>
    <v>       0.87259992       0.86754545       0.24062444 </v>
    <v>       0.88916170       0.85526718       0.75605333 </v>
    <v>       0.36740492       0.12311689       0.24641574 </v>
    <v>       0.35556498       0.60942997       0.25075930 </v>
    <v>       0.35294186       0.60445963       0.74799619 </v>
    <v>       0.87057982       0.11637682       0.24333164 </v>
    <v>       0.86223113       0.10471258       0.75457374 </v>
    <v>       0.85484389       0.60640390       0.25118678 </v>
    <v>       0.85254040       0.60502405       0.74883472 </v>
    <v>       0.14012816       0.39279151       0.24637299 </v>
    <v>       0.14186272       0.39795732       0.75035179 </v>
    <v>       0.13668170       0.89061519       0.75296631 </v>
    <v>       0.63937483       0.39235076       0.25036070 </v>
    <v>       0.62489187       0.39100997       0.75575133 </v>
    <v>       0.64523151       0.89228162       0.75412055 </v>
    <v>       0.36641247       0.38371208       0.49866498 </v>
    <v>       0.35563158       0.88762393       0.00242144 </v>
    <v>       0.36064398       0.88401511       0.49763001 </v>
    <v>       0.87754713       0.37423795       0.00045451 </v>
    <v>       0.87196377       0.37888006       0.49949499 </v>
    <v>       0.87520264       0.87523978       0.00428797 </v>
    <v>       0.89333683       0.87085860       0.49634004 </v>
    <v>       0.14084160       0.10936962       0.99714894 </v>
    <v>       0.14298861       0.10047789       0.50298635 </v>
    <v>       0.10939018       0.64118277       0.99937769 </v>
    <v>       0.12432523       0.62643862       0.49877434 </v>
    <v>       0.63806913       0.11484830       0.99789297 </v>
    <v>       0.63582905       0.11755531       0.49925036 </v>
    <v>       0.62590537       0.61897930       0.50630169 </v>
    <v>       0.13415489       0.38251534       0.99119845 </v>
    <v>       0.12012004       0.36274032       0.51211088 </v>
    <v>       0.61925433       0.38164943       0.99354675 </v>
    <v>       0.62003181       0.37019852       0.50035102 </v>
    <v>       0.60966634       0.85443503       0.98945515 </v>
    <v>       0.62324225       0.87029981       0.50798422 </v>
    <v>       0.39538712       0.14752226       0.01138049 </v>
    <v>       0.38784639       0.13449635       0.48792695 </v>
    <v>       0.37931790       0.61825255       0.00467165 </v>
    <v>       0.37869659       0.63291829       0.49778899 </v>
    <v>       0.88382207       0.13144805       0.01331423 </v>
    <v>       0.88713626       0.12956346       0.48955617 </v>
    <v>       0.85273855       0.61647896       0.00873675 </v>
    <v>       0.87511583       0.62319094       0.49215592 </v>
    <v>       0.03368344       0.96523691       0.12509398 </v>
    <v>       0.00191413       0.99569843       0.62685022 </v>
    <v>       0.00376719       0.49984313       0.12424324 </v>
    <v>       0.99372324       0.50363864       0.62505165 </v>
    <v>       0.51952192       0.98000190       0.13049707 </v>
    <v>       0.49055027       0.00762128       0.62883328 </v>
    <v>       0.50449050       0.49760377       0.11504195 </v>
    <v>       0.48807496       0.49143622       0.62986777 </v>
    <v>       0.02946088       0.97500423       0.36043369 </v>
    <v>       0.00399235       0.98524222       0.88361859 </v>
    <v>       0.00738554       0.49067702       0.37434783 </v>
    <v>       0.99273825       0.50787988       0.87569044 </v>
    <v>       0.51968873       0.98184206       0.36724196 </v>
    <v>       0.48144863       0.01053030       0.87077865 </v>
    <v>       0.50312571       0.50295908       0.37678310 </v>
    <v>       0.48237897       0.49959037       0.87899930 </v>
    <v>       0.23752519       0.25341796       0.37019395 </v>
    <v>       0.29095105       0.26318155       0.87088464 </v>
    <v>       0.22174022       0.77318198       0.37710026 </v>
    <v>       0.24343794       0.75540310       0.87976797 </v>
    <v>       0.75266519       0.25383369       0.37233931 </v>
    <v>       0.75601668       0.24557232       0.87768203 </v>
    <v>       0.73716173       0.76551080       0.36836449 </v>
    <v>       0.74512386       0.73309368       0.87791295 </v>
    <v>       0.25618077       0.27205883       0.12000732 </v>
    <v>       0.30034807       0.23657199       0.65516535 </v>
    <v>       0.23048417       0.76157224       0.12534917 </v>
    <v>       0.23034293       0.76622794       0.61711662 </v>
    <v>       0.74252093       0.25712946       0.12404309 </v>
    <v>       0.75612950       0.24741707       0.62614490 </v>
    <v>       0.72548731       0.75305418       0.12407577 </v>
    <v>       0.75522733       0.75100125       0.62847089 </v>
   </varray>
  </structure>
  <varray name="forces" >
   <v>       0.00050464      -0.00794705       0.01004832 </v>
   <v>       0.01743986       0.00118033       0.00333632 </v>
   <v>      -0.00343032       0.00691553      -0.00479247 </v>
   <v>       0.00225404       0.00230217      -0.00339844 </v>
   <v>       0.01576674       0.00362616       0.00382604 </v>
   <v>       0.00094800       0.00442955      -0.00256398 </v>
   <v>       0.00955645      -0.00843916      -0.00550947 </v>
   <v>      -0.00338403      -0.00686738      -0.00088266 </v>
   <v>       0.01577310       0.00802226       0.01130991 </v>
   <v>       0.00611006       0.01381782      -0.01772356 </v>
   <v>      -0.00435552      -0.00197638       0.00718654 </v>
   <v>      -0.00299088      -0.00628288       0.00351625 </v>
   <v>      -0.00280468      -0.00295296      -0.00169686 </v>
   <v>      -0.02468571       0.00251411       0.00238740 </v>
   <v>      -0.00467527      -0.01676725       0.01251452 </v>
   <v>      -0.01114510      -0.00598617      -0.00085685 </v>
   <v>      -0.01494848       0.01553941       0.00787850 </v>
   <v>       0.00827497       0.00355681       0.01326017 </v>
   <v>      -0.00084307       0.01193819      -0.00941573 </v>
   <v>       0.00041520      -0.00406108      -0.00423621 </v>
   <v>       0.00629337       0.00639855       0.00051569 </v>
   <v>       0.00566163       0.00262852       0.00528916 </v>
   <v>       0.00378402       0.00916494       0.00094137 </v>
   <v>       0.00124280       0.00505624       0.00562034 </v>
   <v>      -0.00765849      -0.01032881      -0.01163668 </v>
   <v>      -0.00131054      -0.00948643      -0.00898257 </v>
   <v>      -0.00852577      -0.00300108       0.01502462 </v>
   <v>       0.01014462       0.01392581       0.01558587 </v>
   <v>       0.01193955      -0.00080492      -0.00039061 </v>
   <v>      -0.01818080      -0.00106660       0.00449699 </v>
   <v>      -0.00533710       0.00359052      -0.00191845 </v>
   <v>       0.00893748      -0.00948983      -0.01202854 </v>
   <v>       0.00961325      -0.00247579      -0.03081893 </v>
   <v>       0.03197451      -0.00695764       0.02296404 </v>
   <v>       0.00044585      -0.00604075      -0.01882239 </v>
   <v>      -0.01908134      -0.02404889       0.00644890 </v>
   <v>      -0.00766747       0.01690010       0.01075227 </v>
   <v>      -0.01073609      -0.00119068       0.00811925 </v>
   <v>      -0.02902744      -0.00206551      -0.01659687 </v>
   <v>      -0.01554673      -0.01268449       0.00356818 </v>
   <v>       0.00080951       0.02147827      -0.01103011 </v>
   <v>      -0.02309778      -0.02253602      -0.01661113 </v>
   <v>      -0.00789112      -0.00093095      -0.04514349 </v>
   <v>       0.03343499       0.02580881      -0.01949302 </v>
   <v>      -0.00743104       0.01318002      -0.00217505 </v>
   <v>       0.03340512      -0.01912687      -0.01740232 </v>
   <v>      -0.00297462       0.00476593      -0.00977287 </v>
   <v>       0.00581976       0.02079466       0.01659452 </v>
   <v>      -0.00492165      -0.00289371       0.02940185 </v>
   <v>      -0.00055445      -0.00140635       0.00374559 </v>
   <v>       0.00764014       0.00326012       0.00645617 </v>
   <v>      -0.01067938       0.00586839      -0.00898026 </v>
   <v>       0.03981229      -0.02021111       0.00045057 </v>
   <v>      -0.01835910       0.01390755       0.01018413 </v>
   <v>      -0.02666483      -0.00974768       0.00089275 </v>
   <v>      -0.00430010       0.00626479       0.00035489 </v>
   <v>       0.01249081       0.01092108       0.00033655 </v>
   <v>       0.01210034       0.00027971       0.01274723 </v>
   <v>      -0.01174902      -0.00147125      -0.01351622 </v>
   <v>      -0.00132740       0.00603764       0.00450531 </v>
   <v>       0.00657773       0.00396060      -0.02014563 </v>
   <v>      -0.01706205       0.00733801      -0.00571589 </v>
   <v>       0.00744029       0.00434193       0.01020313 </v>
   <v>       0.02270224       0.00944693      -0.01319248 </v>
   <v>       0.00756156       0.00620900      -0.00023506 </v>
   <v>       0.00166785      -0.00690434       0.01358170 </v>
   <v>       0.00689763      -0.00640364       0.00084588 </v>
   <v>       0.01919087      -0.00234087       0.00692980 </v>
   <v>       0.01678165      -0.01228855       0.01064775 </v>
   <v>       0.00057183       0.00308596      -0.00634414 </v>
   <v>       0.01298963       0.02537239       0.00191850 </v>
   <v>      -0.01117152      -0.01857620      -0.00899729 </v>
   <v>      -0.02919025      -0.00283185       0.00097131 </v>
   <v>      -0.01435483      -0.00835398      -0.00661357 </v>
   <v>      -0.01393321      -0.00254521       0.00059666 </v>
   <v>      -0.00888794       0.00035358       0.01269220 </v>
   <v>      -0.00438298      -0.01704727      -0.01373795 </v>
   <v>      -0.01614733       0.01246305       0.00605639 </v>
   <v>       0.00695660       0.00545919       0.01066870 </v>
   <v>       0.01886746      -0.01203967       0.00041077 </v>
   <v>      -0.00757824       0.00163626       0.00075025 </v>
   <v>       0.01423714      -0.00779857      -0.00692471 </v>
   <v>       0.00105582       0.03628681      -0.01535626 </v>
   <v>      -0.00312206       0.01481396      -0.00538102 </v>
   <v>       0.01325333      -0.00827930      -0.00475603 </v>
   <v>      -0.00473752       0.00773275      -0.00272180 </v>
   <v>      -0.01552513      -0.00010523      -0.00712149 </v>
   <v>       0.00686768      -0.01844356      -0.00952894 </v>
   <v>       0.01161505       0.00750280       0.00503812 </v>
   <v>       0.00745297      -0.01829930       0.00938278 </v>
   <v>      -0.00747848      -0.00650818       0.00040250 </v>
   <v>       0.00212654       0.00234705      -0.00250482 </v>
   <v>      -0.01273883      -0.00864708      -0.00825054 </v>
   <v>      -0.01134482      -0.00696373      -0.01702665 </v>
   <v>       0.01339640      -0.00946599       0.01377875 </v>
   <v>       0.00281126      -0.00719398      -0.01000602 </v>
   <v>       0.00379755      -0.00586297       0.00419086 </v>
   <v>       0.00396089       0.01119771      -0.00272873 </v>
   <v>       0.00314437       0.00013949       0.00322485 </v>
   <v>      -0.02700964      -0.02078614       0.00314982 </v>
   <v>       0.00588234       0.00078849      -0.00759407 </v>
   <v>       0.02028398       0.00348965      -0.01231918 </v>
   <v>      -0.00534225       0.00768449       0.00285438 </v>
   <v>      -0.00123973      -0.00946988      -0.00450267 </v>
   <v>      -0.00147445      -0.00679617      -0.00568483 </v>
   <v>       0.01116351       0.00302341      -0.00315410 </v>
   <v>      -0.01364689      -0.00764839       0.02808366 </v>
   <v>       0.01355576      -0.00150173      -0.00075403 </v>
   <v>      -0.00586027       0.01350097       0.00731594 </v>
   <v>       0.00065914       0.00537332      -0.00800427 </v>
   <v>       0.00259862       0.01259447       0.00883285 </v>
   <v>       0.00205561       0.01809622      -0.00546079 </v>
   <v>      -0.01632572      -0.02044594       0.00277102 </v>
   <v>      -0.00248598      -0.00307535      -0.00879034 </v>
   <v>      -0.00018934       0.00967093      -0.00073636 </v>
   <v>       0.02799356       0.00063029       0.00494377 </v>
   <v>       0.00483735      -0.00113149      -0.01262052 </v>
   <v>      -0.02783358       0.01056604       0.00561765 </v>
   <v>      -0.00256454      -0.00845974      -0.00621023 </v>
   <v>      -0.00818763       0.01061104       0.00433438 </v>
   <v>      -0.00100331       0.01004994      -0.00174881 </v>
   <v>       0.00620985       0.00497381       0.01765445 </v>
   <v>       0.01299484      -0.00649185       0.00965264 </v>
   <v>       0.00260855      -0.00225022       0.01217741 </v>
   <v>      -0.00168693       0.00580735       0.00504931 </v>
   <v>       0.01093078       0.00382092      -0.01584207 </v>
   <v>      -0.00970168      -0.00001916      -0.00754675 </v>
   <v>       0.00917010      -0.01453540      -0.00158456 </v>
   <v>      -0.00801096       0.00097186      -0.00312100 </v>
   <v>      -0.00084282       0.00259472       0.00966655 </v>
   <v>      -0.01984963      -0.00631715      -0.01280630 </v>
   <v>       0.01253602      -0.01753852       0.01681433 </v>
   <v>      -0.01024355      -0.01711409      -0.00855227 </v>
   <v>      -0.00515163       0.00950475       0.01204703 </v>
   <v>      -0.00724063       0.00555150       0.02722894 </v>
   <v>       0.01121291      -0.00557163      -0.00417040 </v>
   <v>      -0.00383505      -0.00106131       0.01546080 </v>
   <v>       0.00266166       0.03213512       0.00830996 </v>
   <v>       0.00798578       0.00491868       0.00126416 </v>
   <v>      -0.00005836       0.00619565       0.01564509 </v>
   <v>      -0.00065070       0.00052099      -0.03763575 </v>
   <v>       0.00785215       0.00296279       0.01579260 </v>
   <v>       0.00348798      -0.01690593      -0.01069219 </v>
   <v>      -0.00465779      -0.00049946       0.01475435 </v>
   <v>       0.00312296       0.00493633       0.00969492 </v>
   <v>      -0.00637695      -0.01596329       0.01698367 </v>
   <v>       0.00755017      -0.01871962      -0.02844421 </v>
   <v>      -0.01253165       0.01332544       0.01079844 </v>
   <v>      -0.01004356      -0.00089527      -0.00704215 </v>
   <v>       0.00326553      -0.00423469       0.01816717 </v>
   <v>      -0.00835412      -0.01432674      -0.00619679 </v>
   <v>       0.00120332       0.00984370       0.00728303 </v>
  </varray>
  <varray name="stress" >
   <v>       0.03828865      -0.01831619      -0.04091031 </v>
   <v>      -0.01831590      -0.02782964       0.01186389 </v>
   <v>      -0.04091050       0.01186427      -0.29929496 </v>
  </varray>
  <energy>
   <i name="e_fr_energy">  -1054.54598920 </i>
   <i name="e_wo_entrp">  -1054.54598920 </i>
   <i name="e_0_energy">     -0.00000000 </i>
  </energy>
  <time name="totalsc"> 1957.10 1959.72</time>
 </calculation>
 <calculation>
  <scstep>
   <time name="dav">  556.29  556.35</time>
   <time name="total">  563.48  563.58</time>
   <energy>
    <i name="alphaZ">   5640.43325819 </i>
    <i name="ewald"> -62319.82970641 </i>
    <i name="hartreedc"> -17332.23987546 </i>
    <i name="XCdc">   3183.76762367 </i>
    <i name="pawpsdc"> 114429.55037200 </i>
    <i name="pawaedc">-113631.27802932 </i>
    <i name="eentropy">     -0.00000000 </i>
    <i name="bandstr">  -7075.12547349 </i>
    <i name="atom">  76050.17612637 </i>
    <i name="e_fr_energy">  -1054.54570444 </i>
    <i name="e_wo_entrp">  -1054.54570444 </i>
    <i name="e_0_energy">  -1054.54570444 </i>
   </energy>
  </scstep>
  <scstep>
   <time name="diag">   64.50   64.50</time>
   <time name="diis">  104.83  104.85</time>
   <time name="orth">   33.17   33.17</time>
   <time name="total">  209.75  209.81</time>
   <energy>
    <i name="e_fr_energy">  -1054.54757214 </i>
    <i name="e_wo_entrp">  -1054.54757214 </i>
    <i name="e_0_energy">  -1054.54757214 </i>
   </energy>
  </scstep>
  <scstep>
   <time name="diag">   64.59   64.61</time>
   <time name="diis">  101.68  101.73</time>
   <time name="orth">   33.05   33.07</time>
   <time name="total">  206.57  206.70</time>
   <energy>
    <i name="e_fr_energy">  -1054.54770495 </i>
    <i name="e_wo_entrp">  -1054.54770495 </i>
    <i name="e_0_energy">  -1054.54770495 </i>
   </energy>
  </scstep>
  <scstep>
   <time name="diag">   64.57   64.59</time>
   <time name="diis">   68.92   68.93</time>
   <time name="orth">   33.13   33.13</time>
   <time name="total">  173.83  174.02</time>
   <energy>
    <i name="e_fr_energy">  -1054.54761527 </i>
    <i name="e_wo_entrp">  -1054.54761527 </i>
    <i name="e_0_energy">  -1054.54761527 </i>
   </energy>
  </scstep>
  <scstep>
   <time name="diag">   64.72   64.73</time>
   <time name="diis">   64.85   64.87</time>
   <time name="orth">   33.10   33.10</time>
   <time name="total">  169.92  170.04</time>
   <energy>
    <i name="e_fr_energy">  -1054.54758680 </i>
    <i name="e_wo_entrp">  -1054.54758680 </i>
    <i name="e_0_energy">  -1054.54758680 </i>
   </energy>
  </scstep>
  <scstep>
   <time name="diag">   64.78   64.78</time>
   <time name="diis">   63.44   63.45</time>
   <time name="orth">   33.13   33.13</time>
   <time name="total">  168.60  168.71</time>
   <energy>
    <i name="e_fr_energy">  -1054.54758959 </i>
    <i name="e_wo_entrp">  -1054.54758959 </i>
    <i name="e_0_energy">  -1054.54758959 </i>
   </energy>
  </scstep>
  <scstep>
   <time name="diag">   64.62   64.64</time>
   <time name="diis">   61.55   61.57</time>
   <time name="orth">   33.11   33.11</time>
   <time name="total">  166.53  166.63</time>
   <energy>
    <i name="e_fr_energy">  -1054.54759057 </i>
    <i name="e_wo_entrp">  -1054.54759057 </i>
    <i name="e_0_energy">  -1054.54759057 </i>
   </energy>
  </scstep>
  <scstep>
   <time name="diag">   64.75   64.76</time>
   <time name="diis">   59.74   59.75</time>
   <time name="orth">   33.04   33.04</time>
   <time name="total">  158.58  158.63</time>
   <energy>
    <i name="alphaZ">   5640.43325819 </i>
    <i name="ewald"> -62319.82970641 </i>
    <i name="hartreedc"> -17330.69681721 </i>
    <i name="XCdc">   3183.64995429 </i>
    <i name="pawpsdc"> 114439.94808763 </i>
    <i name="pawaedc">-113641.69547412 </i>
    <i name="eentropy">     -0.00000000 </i>
    <i name="bandstr">  -7076.53302035 </i>
    <i name="atom">  76050.17612637 </i>
    <i name="e_fr_energy">  -1054.54759160 </i>
    <i name="e_wo_entrp">  -1054.54759160 </i>
    <i name="e_0_energy">  -1054.54759160 </i>
   </energy>
  </scstep>
  <structure>
   <crystal>
    <varray name="basis" >
     <v>      11.23601512       0.00379665      -0.00897099 </v>
     <v>       0.00368322      11.20893924       0.01054351 </v>
     <v>      -0.01278277       0.01500396      15.85389951 </v>
    </varray>
    <i name="volume">   1996.69723529 </i>
    <varray name="rec_basis" >
     <v>       0.08899959      -0.00002931       0.00007179 </v>
     <v>      -0.00003021       0.08921460      -0.00008446 </v>
     <v>       0.00005038      -0.00005935       0.06307606 </v>
    </varray>
   </crystal>
   <varray name="positions" >
    <v>       0.00715394       0.26065434       0.12375355 </v>
    <v>       0.98817445       0.24689591       0.62252423 </v>
    <v>       0.99802074       0.74023864       0.12411504 </v>
    <v>       0.99451973       0.74643886       0.62449233 </v>
    <v>       0.50317692       0.25175594       0.13120325 </v>
    <v>       0.51282497       0.24177006       0.61393149 </v>
    <v>       0.48485250       0.75439571       0.12682290 </v>
    <v>       0.50347280       0.75784354       0.61818001 </v>
    <v>       0.00178663       0.25266061       0.37813239 </v>
    <v>       0.98930263       0.24793642       0.87627587 </v>
    <v>       0.99099583       0.74406650       0.37805899 </v>
    <v>       0.00539272       0.74807359       0.87067531 </v>
    <v>       0.50607646       0.24935125       0.37693947 </v>
    <v>       0.51504405       0.24330212       0.88109626 </v>
    <v>       0.50449781       0.75216410       0.38031562 </v>
    <v>       0.48420073       0.76019095       0.87325106 </v>
    <v>       0.26215113       0.00375567       0.12363862 </v>
    <v>       0.25739155       0.00273168       0.62323151 </v>
    <v>       0.24985668       0.50530144       0.12831323 </v>
    <v>       0.24769889       0.49602396       0.62007109 </v>
    <v>       0.74208916       0.00828560       0.12352168 </v>
    <v>       0.75464242       0.00045028       0.61818607 </v>
    <v>       0.75035884       0.48940073       0.12540588 </v>
    <v>       0.75163748       0.49268917       0.62053968 </v>
    <v>       0.26283941       0.00729823       0.37624350 </v>
    <v>       0.24982209       0.99115585       0.87565356 </v>
    <v>       0.25474350       0.49159873       0.37539447 </v>
    <v>       0.24011070       0.51558905       0.87304990 </v>
    <v>       0.74736430       0.00301744       0.38464093 </v>
    <v>       0.75572776       0.00271013       0.87568770 </v>
    <v>       0.74668206       0.49377558       0.38336206 </v>
    <v>       0.75883617       0.49003555       0.87303436 </v>
    <v>       0.00171864       0.50067706       0.99914206 </v>
    <v>       0.99860005       0.49658069       0.50045550 </v>
    <v>       0.50271142       0.49456630       0.49970437 </v>
    <v>       0.25745893       0.74424967       0.49714823 </v>
    <v>       0.75005439       0.24866474       0.00088372 </v>
    <v>       0.75568880       0.76092173       0.99996206 </v>
    <v>       0.25485929       0.25562510       0.24654661 </v>
    <v>       0.74661566       0.25572165       0.25207311 </v>
    <v>       0.75278788       0.73622671       0.24924252 </v>
    <v>       0.75632757       0.74718631       0.74957708 </v>
    <v>       0.99355158       0.00737395       0.24474467 </v>
    <v>       0.00142851       0.99743453       0.75108185 </v>
    <v>       0.00515162       0.49818824       0.25119792 </v>
    <v>       0.99787191       0.50033893       0.74848373 </v>
    <v>       0.51378578       0.99282577       0.74933685 </v>
    <v>       0.50595450       0.51668743       0.75049185 </v>
    <v>       0.99718314       0.00986411       0.00414316 </v>
    <v>       0.99787826       0.00733511       0.50047184 </v>
    <v>       0.49743038       0.00013036       0.00083670 </v>
    <v>       0.50350719       0.00112523       0.49720093 </v>
    <v>       0.49837255       0.49832202       0.99852248 </v>
    <v>       0.24918478       0.23947303       0.99745820 </v>
    <v>       0.25412429       0.24568803       0.49385834 </v>
    <v>       0.25798427       0.74176325       0.00266818 </v>
    <v>       0.75164756       0.24744949       0.50007144 </v>
    <v>       0.75026201       0.74983102       0.50090701 </v>
    <v>       0.22903476       0.25511833       0.75853655 </v>
    <v>       0.25333142       0.74196598       0.25219873 </v>
    <v>       0.24405915       0.75295178       0.74622828 </v>
    <v>       0.74905586       0.24751108       0.74877416 </v>
    <v>       0.48968867       0.00736465       0.24982212 </v>
    <v>       0.50020139       0.50432623       0.25251146 </v>
    <v>       0.12007041       0.13009891       0.23786592 </v>
    <v>       0.11193072       0.13606302       0.76090999 </v>
    <v>       0.09927561       0.64799470       0.25117079 </v>
    <v>       0.10369169       0.64082056       0.74976789 </v>
    <v>       0.62461475       0.12979153       0.24842439 </v>
    <v>       0.59890228       0.14347958       0.75150692 </v>
    <v>       0.59987978       0.65558141       0.24916455 </v>
    <v>       0.60089020       0.65079890       0.74913349 </v>
    <v>       0.38929983       0.36548198       0.25197848 </v>
    <v>       0.36872445       0.87141462       0.25004870 </v>
    <v>       0.38414820       0.87055092       0.74787975 </v>
    <v>       0.89174613       0.36205950       0.24575713 </v>
    <v>       0.88992231       0.36138943       0.75331295 </v>
    <v>       0.87253059       0.86759909       0.24064279 </v>
    <v>       0.88919160       0.85529062       0.75608579 </v>
    <v>       0.36748595       0.12306505       0.24641707 </v>
    <v>       0.35553244       0.60943702       0.25076156 </v>
    <v>       0.35300298       0.60442607       0.74797518 </v>
    <v>       0.87058425       0.11653305       0.24328482 </v>
    <v>       0.86221768       0.10477636       0.75455732 </v>
    <v>       0.85490079       0.60636827       0.25117236 </v>
    <v>       0.85252004       0.60505735       0.74882640 </v>
    <v>       0.14006148       0.39279111       0.24635129 </v>
    <v>       0.14189221       0.39787797       0.75032286 </v>
    <v>       0.13673158       0.89064744       0.75298164 </v>
    <v>       0.63940688       0.39227195       0.25038931 </v>
    <v>       0.62485977       0.39098197       0.75575256 </v>
    <v>       0.64524063       0.89229173       0.75411292 </v>
    <v>       0.36635776       0.38367492       0.49863988 </v>
    <v>       0.35558283       0.88759404       0.00236963 </v>
    <v>       0.36070156       0.88397430       0.49767199 </v>
    <v>       0.87755917       0.37420703       0.00042409 </v>
    <v>       0.87198010       0.37885481       0.49950777 </v>
    <v>       0.87521962       0.87528798       0.00427964 </v>
    <v>       0.89335034       0.87085918       0.49634986 </v>
    <v>       0.14072567       0.10928019       0.99715852 </v>
    <v>       0.14301384       0.10048131       0.50296326 </v>
    <v>       0.10947723       0.64119781       0.99934025 </v>
    <v>       0.12430229       0.62647169       0.49878299 </v>
    <v>       0.63806380       0.11480757       0.99787930 </v>
    <v>       0.63582271       0.11752609       0.49923308 </v>
    <v>       0.62595329       0.61899231       0.50629211 </v>
    <v>       0.13409640       0.38248233       0.99128389 </v>
    <v>       0.12017824       0.36273384       0.51210862 </v>
    <v>       0.61922917       0.38170751       0.99356896 </v>
    <v>       0.62003461       0.37022168       0.50032665 </v>
    <v>       0.60967751       0.85448919       0.98948199 </v>
    <v>       0.62325103       0.87037772       0.50796756 </v>
    <v>       0.39531706       0.14743428       0.01138894 </v>
    <v>       0.38783569       0.13448315       0.48790021 </v>
    <v>       0.37931708       0.61829418       0.00466938 </v>
    <v>       0.37881680       0.63292094       0.49780409 </v>
    <v>       0.88384280       0.13144322       0.01327585 </v>
    <v>       0.88701676       0.12960896       0.48957316 </v>
    <v>       0.85272753       0.61644258       0.00871787 </v>
    <v>       0.87508068       0.62323660       0.49216906 </v>
    <v>       0.03367911       0.96528017       0.12508862 </v>
    <v>       0.00194085       0.99571976       0.62690394 </v>
    <v>       0.00382303       0.49981513       0.12427266 </v>
    <v>       0.99373449       0.50362890       0.62508871 </v>
    <v>       0.51951468       0.98002688       0.13051242 </v>
    <v>       0.49059714       0.00763778       0.62878510 </v>
    <v>       0.50444882       0.49760374       0.11501896 </v>
    <v>       0.48811435       0.49137365       0.62986301 </v>
    <v>       0.02942648       0.97500843       0.36042417 </v>
    <v>       0.00398876       0.98525335       0.88364800 </v>
    <v>       0.00730027       0.49064992       0.37430884 </v>
    <v>       0.99279216       0.50780431       0.87574168 </v>
    <v>       0.51964474       0.98176845       0.36721596 </v>
    <v>       0.48142654       0.01057117       0.87081526 </v>
    <v>       0.50309470       0.50298288       0.37686591 </v>
    <v>       0.48242711       0.49956639       0.87898665 </v>
    <v>       0.23750878       0.25341334       0.37024098 </v>
    <v>       0.29096246       0.26331982       0.87090984 </v>
    <v>       0.22177450       0.77320313       0.37710411 </v>
    <v>       0.24343774       0.75542970       0.87981555 </v>
    <v>       0.75266227       0.25383608       0.37222479 </v>
    <v>       0.75605045       0.24558499       0.87773009 </v>
    <v>       0.73717670       0.76543808       0.36833201 </v>
    <v>       0.74510391       0.73309147       0.87795783 </v>
    <v>       0.25619421       0.27208003       0.12003681 </v>
    <v>       0.30032077       0.23650322       0.65521705 </v>
    <v>       0.23051652       0.76149177       0.12526270 </v>
    <v>       0.23028914       0.76628527       0.61714941 </v>
    <v>       0.74247779       0.25712565       0.12402164 </v>
    <v>       0.75614358       0.24739877       0.62620019 </v>
    <v>       0.72545144       0.75299256       0.12405693 </v>
    <v>       0.75523251       0.75104358       0.62849302 </v>
   </varray>
  </structure>
  <varray name="forces" >
   <v>      -0.00780385       0.00634378       0.00642598 </v>
   <v>       0.00487447      -0.00527605       0.00697798 </v>
   <v>       0.00324579      -0.00512638      -0.00802107 </v>
   <v>      -0.00513075       0.00887795       0.00603077 </v>
   <v>       0.00744086      -0.00265159       0.00188216 </v>
   <v>       0.00188318       0.00704201      -0.00441668 </v>
   <v>       0.00063471      -0.00287381      -0.00842540 </v>
   <v>      -0.00413854      -0.00287277      -0.00955111 </v>
   <v>       0.00668924       0.00773019       0.00146326 </v>
   <v>      -0.00380258       0.00109127      -0.00245601 </v>
   <v>      -0.00415074      -0.00281030      -0.00256345 </v>
   <v>      -0.00778748       0.00582550       0.00108956 </v>
   <v>      -0.00836743      -0.00444318      -0.00237327 </v>
   <v>      -0.01732781      -0.00179121       0.00189682 </v>
   <v>      -0.00112841      -0.00801439       0.01270367 </v>
   <v>      -0.01007829      -0.00031648       0.00914738 </v>
   <v>      -0.00121424       0.00835596      -0.00018230 </v>
   <v>       0.01232691      -0.00151775       0.00570364 </v>
   <v>      -0.00294605       0.01142002      -0.00514359 </v>
   <v>       0.01812282      -0.00550286      -0.00064968 </v>
   <v>      -0.00068323       0.00961196      -0.00544089 </v>
   <v>       0.00192051       0.00511565       0.00856936 </v>
   <v>       0.01345598       0.00720199       0.00317485 </v>
   <v>      -0.00521935       0.00125263       0.00364385 </v>
   <v>      -0.00416942      -0.00760969      -0.01001217 </v>
   <v>      -0.00159556      -0.00945174       0.00121496 </v>
   <v>      -0.00371774      -0.00875657      -0.00116385 </v>
   <v>       0.01660494       0.01484958       0.01273620 </v>
   <v>       0.00599153      -0.00154340       0.00089879 </v>
   <v>      -0.00428720      -0.00149300       0.00283147 </v>
   <v>       0.00220851       0.00532259      -0.00352756 </v>
   <v>       0.00812630      -0.00876466      -0.01054526 </v>
   <v>      -0.00276029       0.00037728       0.02755058 </v>
   <v>      -0.01786748      -0.00219965      -0.02341370 </v>
   <v>       0.00298787      -0.00373313       0.01418482 </v>
   <v>       0.02170513       0.00477872       0.00025037 </v>
   <v>       0.01295951      -0.00821853      -0.00441816 </v>
   <v>       0.00537256       0.00485477      -0.00728671 </v>
   <v>      -0.00824362       0.00548654       0.00547914 </v>
   <v>       0.01239718      -0.00550021      -0.00780770 </v>
   <v>       0.01573953      -0.00715965      -0.00323959 </v>
   <v>       0.02584714       0.02337204       0.02531104 </v>
   <v>      -0.00746111       0.01120574       0.00363103 </v>
   <v>      -0.02620378      -0.00761487       0.02242276 </v>
   <v>      -0.01694040       0.00067980      -0.01832246 </v>
   <v>       0.01120560      -0.00828058       0.01194359 </v>
   <v>       0.00839998      -0.00208402      -0.00279239 </v>
   <v>      -0.01250585      -0.03498021      -0.00132772 </v>
   <v>      -0.01082058       0.00013686      -0.01281733 </v>
   <v>      -0.00901513       0.01208265      -0.00393055 </v>
   <v>      -0.00422242      -0.00193415       0.00752218 </v>
   <v>      -0.00669372       0.00004884      -0.00739866 </v>
   <v>       0.00173368       0.01333885      -0.00523372 </v>
   <v>      -0.01682421      -0.00913164       0.00535352 </v>
   <v>      -0.00054739      -0.01540362      -0.00877244 </v>
   <v>       0.00455018       0.00722885      -0.00105356 </v>
   <v>      -0.00698491       0.00482114      -0.00001915 </v>
   <v>      -0.00388200       0.00288291       0.00443364 </v>
   <v>       0.00455687      -0.00892198       0.01750580 </v>
   <v>       0.00064718       0.00148883      -0.00608643 </v>
   <v>       0.00698578       0.00756375      -0.00044367 </v>
   <v>      -0.01314645      -0.00026830       0.00705441 </v>
   <v>       0.00614250      -0.00371505       0.00020623 </v>
   <v>       0.00298831      -0.00068718      -0.00706808 </v>
   <v>       0.00137766      -0.00385656      -0.00213605 </v>
   <v>       0.01040568       0.00778203       0.00875485 </v>
   <v>       0.00760942       0.00552442       0.00418085 </v>
   <v>       0.01193149      -0.01638510       0.00161979 </v>
   <v>       0.00756468      -0.01794985       0.00704377 </v>
   <v>      -0.00699099      -0.00198136      -0.00424091 </v>
   <v>      -0.00474988       0.00487845       0.00081383 </v>
   <v>       0.01363274       0.01671458      -0.00776047 </v>
   <v>      -0.01055049       0.01198213       0.00404695 </v>
   <v>      -0.01389961      -0.00650932      -0.00595992 </v>
   <v>      -0.00479865       0.00054776      -0.00377215 </v>
   <v>      -0.00827635       0.00263818       0.00766353 </v>
   <v>       0.01488045       0.00678244      -0.01203505 </v>
   <v>      -0.00956749       0.01880537      -0.00008186 </v>
   <v>      -0.00836930      -0.00684570       0.00266209 </v>
   <v>      -0.00119838       0.01251654       0.00069920 </v>
   <v>       0.00459684      -0.00453279       0.00356478 </v>
   <v>       0.00085380       0.00061209      -0.00645987 </v>
   <v>       0.02682176       0.00500506      -0.02102788 </v>
   <v>       0.00671162       0.01003009      -0.00651742 </v>
   <v>      -0.01043865       0.02185256      -0.00613531 </v>
   <v>       0.01263909      -0.01143065      -0.00252559 </v>
   <v>      -0.00425326      -0.01051201      -0.00270880 </v>
   <v>      -0.00480165      -0.00361675      -0.01140011 </v>
[...]
       <r>   -16.9900     0.0000    32.0000 </r>
       <r>   -16.8366     0.0000    32.0000 </r>
       <r>   -16.6832     0.0000    32.0000 </r>
       <r>   -16.5298     0.0000    32.0000 </r>
       <r>   -16.3764     0.0000    32.0000 </r>
       <r>   -16.2230     0.0000    32.0000 </r>
       <r>   -16.0696     0.0000    32.0000 </r>
       <r>   -15.9162     0.0000    32.0000 </r>
       <r>   -15.7628     0.0000    32.0000 </r>
       <r>   -15.6094     0.0000    32.0000 </r>
       <r>   -15.4560     0.0000    32.0000 </r>
       <r>   -15.3026     0.0593    32.0091 </r>
       <r>   -15.1492    11.9169    33.8371 </r>
       <r>   -14.9958    28.9868    38.2837 </r>
       <r>   -14.8424    29.5575    42.8177 </r>
       <r>   -14.6890    38.2726    48.6887 </r>
       <r>   -14.5356    43.5508    55.3693 </r>
       <r>   -14.3822    41.6100    61.7522 </r>
       <r>   -14.2288    47.9696    69.1107 </r>
       <r>   -14.0754    66.1774    79.2622 </r>
       <r>   -13.9220    85.3465    92.3543 </r>
       <r>   -13.7686    76.7687   104.1305 </r>
       <r>   -13.6152    53.8200   112.3864 </r>
       <r>   -13.4618    32.9380   117.4390 </r>
       <r>   -13.3084    16.2670   119.9344 </r>
       <r>   -13.1550     0.4279   120.0000 </r>
       <r>   -13.0016     0.0000   120.0000 </r>
       <r>   -12.8482     0.0007   120.0001 </r>
       <r>   -12.6948    10.8367   121.6624 </r>
       <r>   -12.5414    86.6849   134.9598 </r>
       <r>   -12.3880   134.3381   155.5671 </r>
       <r>   -12.2346   125.2095   174.7740 </r>
       <r>   -12.0812   105.3774   190.9388 </r>
       <r>   -11.9278    87.9116   204.4243 </r>
       <r>   -11.7744    49.1381   211.9620 </r>
       <r>   -11.6210    19.2017   214.9075 </r>
       <r>   -11.4676     6.9096   215.9674 </r>
       <r>   -11.3142     0.2122   216.0000 </r>
       <r>   -11.1608     0.0000   216.0000 </r>
       <r>   -11.0074     0.0000   216.0000 </r>
       <r>   -10.8540     0.0000   216.0000 </r>
       <r>   -10.7006     0.0000   216.0000 </r>
       <r>   -10.5472     0.0000   216.0000 </r>
       <r>   -10.3938     0.0000   216.0000 </r>
       <r>   -10.2404     0.0000   216.0000 </r>
       <r>   -10.0870     0.0000   216.0000 </r>
       <r>    -9.9336     0.0000   216.0000 </r>
       <r>    -9.7802     0.0000   216.0000 </r>
       <r>    -9.6268     0.0000   216.0000 </r>
       <r>    -9.4734     0.0000   216.0000 </r>
       <r>    -9.3200     0.0000   216.0000 </r>
       <r>    -9.1666     0.0000   216.0000 </r>
       <r>    -9.0132     0.0000   216.0000 </r>
       <r>    -8.8598     0.0000   216.0000 </r>
       <r>    -8.7064     0.0000   216.0000 </r>
       <r>    -8.5530     0.0000   216.0000 </r>
       <r>    -8.3996     0.0000   216.0000 </r>
       <r>    -8.2462     0.0000   216.0000 </r>
       <r>    -8.0928     0.0000   216.0000 </r>
       <r>    -7.9395     0.0000   216.0000 </r>
       <r>    -7.7861     0.0000   216.0000 </r>
       <r>    -7.6327     0.0000   216.0000 </r>
       <r>    -7.4793     0.0000   216.0000 </r>
       <r>    -7.3259     0.0000   216.0000 </r>
       <r>    -7.1725     0.0000   216.0000 </r>
       <r>    -7.0191     0.0000   216.0000 </r>
       <r>    -6.8657     0.0000   216.0000 </r>
       <r>    -6.7123     0.0000   216.0000 </r>
       <r>    -6.5589     0.0000   216.0000 </r>
       <r>    -6.4055     0.0000   216.0000 </r>
       <r>    -6.2521     0.0000   216.0000 </r>
       <r>    -6.0987     0.0000   216.0000 </r>
       <r>    -5.9453     0.0000   216.0000 </r>
       <r>    -5.7919     0.0000   216.0000 </r>
       <r>    -5.6385     0.0000   216.0000 </r>
       <r>    -5.4851     0.0000   216.0000 </r>
       <r>    -5.3317     0.0000   216.0000 </r>
       <r>    -5.1783     0.0000   216.0000 </r>
       <r>    -5.0249     0.0000   216.0000 </r>
       <r>    -4.8715     0.0000   216.0000 </r>
       <r>    -4.7181     0.0000   216.0000 </r>
       <r>    -4.5647     0.0000   216.0000 </r>
       <r>    -4.4113     0.0000   216.0000 </r>
       <r>    -4.2579     0.0000   216.0000 </r>
       <r>    -4.1045     0.0000   216.0000 </r>
       <r>    -3.9511     0.0000   216.0000 </r>
       <r>    -3.7977     0.0000   216.0000 </r>
       <r>    -3.6443     0.0000   216.0000 </r>
       <r>    -3.4909     0.0000   216.0000 </r>
       <r>    -3.3375     0.0000   216.0000 </r>
       <r>    -3.1841     0.0000   216.0000 </r>
       <r>    -3.0307     0.0000   216.0000 </r>
       <r>    -2.8773     0.0000   216.0000 </r>
       <r>    -2.7239     2.2149   216.3398 </r>
       <r>    -2.5705     4.3037   216.9999 </r>
       <r>    -2.4171     0.8816   217.1352 </r>
       <r>    -2.2637    14.0475   219.2901 </r>
       <r>    -2.1103    21.3008   222.5576 </r>
       <r>    -1.9569    26.0945   226.5604 </r>
       <r>    -1.8035    31.9847   231.4668 </r>
       <r>    -1.6501    34.7333   236.7949 </r>
       <r>    -1.4967    47.7754   244.1236 </r>
       <r>    -1.3433    45.7098   251.1354 </r>
       <r>    -1.1899    55.4783   259.6457 </r>
       <r>    -1.0365    70.3957   270.4443 </r>
       <r>    -0.8831    73.9558   281.7890 </r>
       <r>    -0.7297    80.7013   294.1684 </r>
       <r>    -0.5763    85.4059   307.2696 </r>
       <r>    -0.4229    96.5341   322.0778 </r>
       <r>    -0.2695    80.1218   334.3684 </r>
       <r>    -0.1161    62.3439   343.9318 </r>
       <r>     0.0373    57.0771   352.6874 </r>
       <r>     0.1907    53.3221   360.8669 </r>
       <r>     0.3441    51.3097   368.7377 </r>
       <r>     0.4975    52.2446   376.7520 </r>
       <r>     0.6509    55.1731   385.2155 </r>
       <r>     0.8043    57.6615   394.0607 </r>
       <r>     0.9577    54.3117   402.3920 </r>
       <r>     1.1111    57.6829   411.2405 </r>
       <r>     1.2645    65.6305   421.3081 </r>
       <r>     1.4179    77.1682   433.1456 </r>
       <r>     1.5713    72.5975   444.2819 </r>
       <r>     1.7247    69.5562   454.9518 </r>
       <r>     1.8781    56.7980   463.6645 </r>
       <r>     2.0315    55.4227   472.1663 </r>
       <r>     2.1849    30.0695   476.7789 </r>
       <r>     2.3383    18.6681   479.6425 </r>
       <r>     2.4917     6.8800   480.6979 </r>
       <r>     2.6451     1.9691   481.0000 </r>
       <r>     2.7985     0.0000   481.0000 </r>
       <r>     2.9518     0.0000   481.0000 </r>
       <r>     3.1052     0.0000   481.0000 </r>
       <r>     3.2586     0.0000   481.0000 </r>
       <r>     3.4120     0.0000   481.0000 </r>
       <r>     3.5654     0.0000   481.0000 </r>
       <r>     3.7188     0.0000   481.0000 </r>
       <r>     3.8722     0.0000   481.0000 </r>
       <r>     4.0256     0.0000   481.0000 </r>
       <r>     4.1790     0.5611   481.0861 </r>
       <r>     4.3324     5.8841   481.9887 </r>
       <r>     4.4858    13.3836   484.0417 </r>
       <r>     4.6392    39.1863   490.0528 </r>
       <r>     4.7926    55.6860   498.5950 </r>
       <r>     4.9460    45.9833   505.6488 </r>
       <r>     5.0994    61.5362   515.0883 </r>
       <r>     5.2528    71.0789   525.9917 </r>
       <r>     5.4062    67.3445   536.3223 </r>
       <r>     5.5596    75.5595   547.9130 </r>
       <r>     5.7130    70.2699   558.6923 </r>
       <r>     5.8664    67.6675   569.0724 </r>
       <r>     6.0198    66.3596   579.2519 </r>
       <r>     6.1732    78.8005   591.3398 </r>
       <r>     6.3266    70.6780   602.1817 </r>
       <r>     6.4800    45.7061   609.1929 </r>
       <r>     6.6334    22.6511   612.6676 </r>
       <r>     6.7868    10.1240   614.2206 </r>
       <r>     6.9402     9.7629   615.7182 </r>
       <r>     7.0936    11.6702   617.5084 </r>
       <r>     7.2470    16.5527   620.0475 </r>
       <r>     7.4004    16.1484   622.5247 </r>
       <r>     7.5538    11.4137   624.2755 </r>
       <r>     7.7072    18.2114   627.0691 </r>
       <r>     7.8606    15.9971   629.5231 </r>
       <r>     8.0140    16.1655   632.0028 </r>
       <r>     8.1674    26.0763   636.0029 </r>
       <r>     8.3208    23.5363   639.6133 </r>
       <r>     8.4742    25.7373   643.5614 </r>
       <r>     8.6276    24.6866   647.3483 </r>
       <r>     8.7810    30.9986   652.1034 </r>
       <r>     8.9344    29.0634   656.5617 </r>
       <r>     9.0878    31.9447   661.4620 </r>
       <r>     9.2412    37.2426   667.1749 </r>
       <r>     9.3946    41.4725   673.5368 </r>
       <r>     9.5480    43.3394   680.1850 </r>
       <r>     9.7014    50.9343   687.9982 </r>
       <r>     9.8548    55.5207   696.5150 </r>
       <r>    10.0082    60.5017   705.7959 </r>
       <r>    10.1616    59.6618   714.9479 </r>
       <r>    10.3150    58.0076   723.8462 </r>
       <r>    10.4684    55.8358   732.4113 </r>
       <r>    10.6218    55.9308   740.9910 </r>
       <r>    10.7752    51.1032   748.8302 </r>
       <r>    10.9286    48.3700   756.2501 </r>
       <r>    11.0820    54.7301   764.6456 </r>
       <r>    11.2354    21.8530   767.9978 </r>
       <r>    11.3888     0.0141   768.0000 </r>
       <r>    11.5422     0.0000   768.0000 </r>
       <r>    11.6956     0.0000   768.0000 </r>
       <r>    11.8490     0.0000   768.0000 </r>
       <r>    12.0024     0.0000   768.0000 </r>
       <r>    12.1558     0.0000   768.0000 </r>
       <r>    12.3092     0.0000   768.0000 </r>
       <r>    12.4626     0.0000   768.0000 </r>
       <r>    12.6160     0.0000   768.0000 </r>
       <r>    12.7694     0.0000   768.0000 </r>
       <r>    12.9228     0.0000   768.0000 </r>
       <r>    13.0762     0.0000   768.0000 </r>
       <r>    13.2296     0.0000   768.0000 </r>
      </set>
     </set>
    </array>
   </total>
  </dos>
 </calculation>
 <structure name="finalpos" >
  <crystal>
   <varray name="basis" >
    <v>      11.23707374       0.00377186      -0.00909383 </v>
    <v>       0.00365878      11.20926472       0.01074246 </v>
    <v>      -0.01295829       0.01528686      15.85284730 </v>
   </varray>
   <i name="volume">   1996.81070452 </i>
   <varray name="rec_basis" >
    <v>       0.08899121      -0.00002912       0.00007277 </v>
    <v>      -0.00003001       0.08921201      -0.00008605 </v>
    <v>       0.00005107      -0.00006047       0.06308025 </v>
   </varray>
  </crystal>
  <varray name="positions" >
   <v>       0.00706973       0.26068344       0.12384085 </v>
   <v>       0.98830903       0.24685703       0.62259515 </v>
   <v>       0.99806042       0.74022245       0.12403113 </v>
   <v>       0.99449189       0.74652036       0.62453221 </v>
   <v>       0.50329992       0.25175343       0.13123831 </v>
   <v>       0.51283150       0.24185934       0.61388128 </v>
   <v>       0.48490693       0.75432105       0.12674577 </v>
   <v>       0.50342600       0.75778188       0.61810333 </v>
   <v>       0.00194075       0.25278981       0.37819324 </v>
   <v>       0.98928201       0.24803748       0.87618821 </v>
   <v>       0.99093454       0.74403121       0.37808420 </v>
   <v>       0.00531826       0.74807940       0.87067954 </v>
   <v>       0.50595547       0.24929719       0.37690770 </v>
   <v>       0.51473967       0.24328388       0.88112459 </v>
   <v>       0.50447527       0.75198894       0.38045873 </v>
   <v>       0.48402945       0.76015697       0.87331199 </v>
   <v>       0.26208505       0.00393864       0.12366161 </v>
   <v>       0.25757206       0.00272643       0.62332175 </v>
   <v>       0.24983879       0.50549339       0.12824961 </v>
   <v>       0.24787784       0.49593735       0.62004882 </v>
   <v>       0.74207901       0.00842535       0.12347039 </v>
   <v>       0.75468454       0.00053013       0.61825834 </v>
   <v>       0.75050605       0.48952784       0.12543117 </v>
   <v>       0.75161616       0.49274279       0.62060025 </v>
   <v>       0.26274158       0.00714242       0.37611220 </v>
   <v>       0.24980016       0.99098991       0.87563455 </v>
   <v>       0.25465793       0.49147718       0.37542713 </v>
   <v>       0.24034452       0.51582693       0.87320292 </v>
   <v>       0.74748374       0.00298404       0.38465629 </v>
   <v>       0.75557629       0.00270437       0.87573130 </v>
   <v>       0.74668660       0.49386709       0.38333591 </v>
   <v>       0.75899209       0.48989571       0.87289701 </v>
   <v>       0.00174576       0.50065623       0.99916605 </v>
   <v>       0.99858675       0.49657072       0.50042479 </v>
   <v>       0.50273593       0.49449194       0.49972491 </v>
   <v>       0.25747951       0.74423398       0.49720134 </v>
   <v>       0.75013942       0.24866194       0.00085964 </v>
   <v>       0.75565915       0.76093113       0.99995191 </v>
   <v>       0.25473026       0.25564523       0.24654376 </v>
   <v>       0.74666211       0.25563826       0.25204443 </v>
   <v>       0.75284670       0.73632941       0.24920961 </v>
   <v>       0.75642359       0.74720125       0.74964120 </v>
   <v>       0.99348802       0.00746095       0.24465176 </v>
   <v>       0.00136512       0.99747748       0.75116196 </v>
   <v>       0.00497833       0.49823204       0.25112857 </v>
   <v>       0.99816207       0.50019102       0.74846758 </v>
   <v>       0.51378349       0.99283055       0.74930461 </v>
   <v>       0.50592483       0.51655337       0.75049423 </v>
   <v>       0.99705207       0.00987337       0.00413279 </v>
   <v>       0.99777499       0.00744924       0.50045668 </v>
   <v>       0.49740595       0.00014220       0.00091209 </v>
   <v>       0.50341998       0.00114047       0.49711048 </v>
   <v>       0.49857732       0.49838641       0.99850095 </v>
   <v>       0.24890432       0.23943478       0.99754254 </v>
   <v>       0.25398297       0.24547907       0.49379288 </v>
   <v>       0.25803736       0.74186396       0.00264814 </v>
   <v>       0.75165109       0.24753206       0.50007276 </v>
   <v>       0.75028811       0.74986481       0.50099047 </v>
   <v>       0.22906440       0.25503656       0.75864072 </v>
   <v>       0.25336412       0.74197106       0.25217719 </v>
   <v>       0.24413565       0.75303329       0.74615521 </v>
   <v>       0.74885536       0.24756998       0.74879655 </v>
   <v>       0.48974467       0.00733250       0.24984400 </v>
   <v>       0.50028957       0.50436538       0.25241818 </v>
   <v>       0.12013472       0.13008967       0.23783829 </v>
   <v>       0.11200628       0.13606292       0.76104356 </v>
   <v>       0.09934837       0.64799667       0.25120437 </v>
   <v>       0.10394031       0.64063761       0.74982244 </v>
   <v>       0.62481237       0.12952381       0.24851948 </v>
   <v>       0.59883748       0.14349298       0.75145839 </v>
   <v>       0.59989029       0.65576609       0.24917389 </v>
   <v>       0.60092408       0.65078838       0.74904646 </v>
   <v>       0.38902211       0.36561332       0.25202034 </v>
   <v>       0.36848622       0.87133146       0.24996156 </v>
   <v>       0.38406501       0.87057825       0.74785067 </v>
   <v>       0.89161685       0.36214076       0.24584748 </v>
   <v>       0.89003601       0.36133956       0.75317828 </v>
   <v>       0.87231540       0.86789129       0.24064204 </v>
   <v>       0.88918196       0.85529304       0.75615943 </v>
   <v>       0.36756941       0.12314307       0.24643532 </v>
   <v>       0.35553703       0.60940968       0.25078742 </v>
   <v>       0.35309305       0.60437732       0.74790112 </v>
   <v>       0.87083683       0.11684418       0.24301189 </v>
   <v>       0.86230201       0.10494366       0.75448942 </v>
   <v>       0.85492509       0.60648273       0.25109183 </v>
   <v>       0.85263185       0.60502118       0.74881525 </v>
   <v>       0.13985297       0.39271129       0.24631009 </v>
   <v>       0.14191064       0.39770882       0.75019186 </v>
   <v>       0.13685809       0.89077889       0.75300731 </v>
   <v>       0.63925172       0.39222324       0.25045489 </v>
   <v>       0.62479708       0.39088052       0.75578227 </v>
   <v>       0.64519134       0.89231273       0.75408190 </v>
   <v>       0.36621348       0.38359802       0.49858291 </v>
   <v>       0.35550736       0.88760419       0.00221665 </v>
   <v>       0.36075069       0.88372149       0.49780786 </v>
   <v>       0.87761142       0.37419536       0.00035894 </v>
   <v>       0.87214778       0.37883197       0.49958529 </v>
   <v>       0.87515080       0.87529239       0.00432292 </v>
   <v>       0.89346523       0.87090429       0.49640889 </v>
   <v>       0.14055724       0.10921618       0.99724623 </v>
   <v>       0.14296731       0.10045285       0.50291987 </v>
   <v>       0.10956188       0.64109131       0.99921076 </v>
   <v>       0.12423399       0.62647687       0.49883997 </v>
   <v>       0.63806045       0.11476862       0.99786274 </v>
   <v>       0.63582932       0.11761223       0.49914500 </v>
   <v>       0.62608660       0.61900274       0.50627131 </v>
   <v>       0.13398196       0.38233995       0.99156601 </v>
   <v>       0.12024210       0.36283823       0.51215341 </v>
   <v>       0.61931634       0.38174887       0.99362031 </v>
   <v>       0.62013610       0.37021596       0.50021626 </v>
   <v>       0.60971956       0.85465344       0.98958563 </v>
   <v>       0.62340892       0.87053713       0.50790925 </v>
   <v>       0.39500450       0.14729485       0.01144425 </v>
   <v>       0.38774544       0.13443132       0.48781100 </v>
   <v>       0.37953663       0.61825309       0.00460481 </v>
   <v>       0.37899630       0.63303353       0.49790004 </v>
   <v>       0.88380116       0.13151287       0.01320431 </v>
   <v>       0.88685277       0.12958839       0.48964730 </v>
   <v>       0.85275074       0.61637450       0.00867521 </v>
   <v>       0.87514954       0.62323946       0.49226187 </v>
   <v>       0.03366356       0.96533818       0.12513650 </v>
   <v>       0.00209556       0.99580622       0.62690243 </v>
   <v>       0.00395225       0.49979826       0.12426897 </v>
   <v>       0.99386778       0.50359194       0.62513223 </v>
   <v>       0.51952903       0.98006696       0.13057297 </v>
   <v>       0.49074216       0.00767907       0.62870106 </v>
   <v>       0.50437365       0.49758389       0.11506025 </v>
   <v>       0.48826246       0.49115015       0.62986560 </v>
   <v>       0.02925084       0.97508507       0.36024229 </v>
   <v>       0.00401120       0.98527601       0.88371593 </v>
   <v>       0.00705123       0.49059330       0.37436891 </v>
   <v>       0.99301929       0.50747500       0.87569599 </v>
   <v>       0.51951469       0.98147389       0.36719592 </v>
   <v>       0.48136812       0.01069997       0.87076606 </v>
   <v>       0.50302059       0.50308594       0.37686275 </v>
   <v>       0.48260885       0.49950664       0.87898049 </v>
   <v>       0.23735629       0.25337494       0.37029045 </v>
   <v>       0.29089558       0.26387666       0.87097511 </v>
   <v>       0.22184850       0.77320932       0.37721717 </v>
   <v>       0.24345227       0.75546908       0.87979157 </v>
   <v>       0.75265464       0.25382555       0.37215617 </v>
   <v>       0.75609155       0.24567984       0.87780137 </v>
   <v>       0.73727279       0.76522735       0.36827796 </v>
   <v>       0.74493041       0.73305195       0.87802621 </v>
   <v>       0.25622701       0.27209803       0.12006850 </v>
   <v>       0.30029360       0.23617510       0.65529571 </v>
   <v>       0.23054742       0.76121781       0.12514338 </v>
   <v>       0.23009647       0.76641026       0.61719901 </v>
   <v>       0.74227375       0.25716082       0.12397357 </v>
   <v>       0.75612449       0.24740002       0.62618264 </v>
   <v>       0.72534173       0.75275012       0.12399661 </v>
   <v>       0.75522987       0.75119535       0.62850649 </v>
  </varray>
 </structure>
</modeling>
