<?xml version="1.0" encoding="ISO-8859-1"?>
<modeling>
 <generator>
  <i name="program" type="string">vasp </i>
  <i name="version" type="string">5.4.1  </i>
  <i name="subversion" type="string">05Feb16 (build Jan 25 2017 20:16:33) complex                          parallel </i>
  <i name="platform" type="string">BWXE6 </i>
  <i name="date" type="string">2019 08 11 </i>
  <i name="time" type="string">11:32:11 </i>
 </generator>
 <incar>
  <i type="string" name="SYSTEM"> STF</i>
  <i type="string" name="PREC">normal</i>
  <i type="string" name="ALGO"> Fast</i>
  <i type="int" name="ISPIN">     2</i>
  <i type="int" name="NELM">    40</i>
  <i type="int" name="NELMIN">     8</i>
  <i type="int" name="IBRION">     2</i>
  <i name="EDIFF">      0.00010000</i>
  <i name="EDIFFG">     -0.03000000</i>
  <i type="int" name="NSW">    30</i>
  <i type="int" name="ISIF">     3</i>
  <i name="ENCUT">    520.00000000</i>
  <i type="int" name="NBANDS">   768</i>
  <v name="MAGMOM">      0.60000000      0.60000000      0.60000000      0.60000000      0.60000000      0.60000000      0.60000000      0.60000000      0.60000000      0.60000000      0.60000000      0.60000000      0.60000000      0.60000000      0.60000000      0.60000000      0.60000000      0.60000000      0.60000000      0.60000000
      0.60000000      0.60000000      0.60000000      0.60000000      0.60000000      0.60000000      0.60000000      0.60000000      0.60000000      0.60000000      0.60000000      0.60000000      0.60000000      0.60000000      0.60000000      0.60000000      0.60000000      0.60000000      0.60000000      0.60000000
      0.60000000      0.60000000      0.60000000      0.60000000      0.60000000      0.60000000      0.60000000      0.60000000      0.60000000      0.60000000      0.60000000      0.60000000      0.60000000      0.60000000      0.60000000      0.60000000      0.60000000      0.60000000      0.60000000      0.60000000
      5.00000000      5.00000000      5.00000000      5.00000000      0.60000000      0.60000000      0.60000000      0.60000000      0.60000000      0.60000000      0.60000000      0.60000000      0.60000000      0.60000000      0.60000000      0.60000000      0.60000000      0.60000000      0.60000000      0.60000000
      0.60000000      0.60000000      0.60000000      0.60000000      0.60000000      0.60000000      0.60000000      0.60000000      0.60000000      0.60000000      0.60000000      0.60000000      0.60000000      0.60000000      0.60000000      0.60000000      0.60000000      0.60000000      0.60000000      0.60000000
      0.60000000      0.60000000      0.60000000      0.60000000      0.60000000      0.60000000      0.60000000      0.60000000      0.60000000      0.60000000      0.60000000      0.60000000      0.60000000      0.60000000      0.60000000      0.60000000      0.60000000      0.60000000      0.60000000      0.60000000
      0.60000000      0.60000000      0.60000000      0.60000000      0.60000000      0.60000000      0.60000000      0.60000000      0.60000000      0.60000000      0.60000000      0.60000000      0.60000000      0.60000000      0.60000000      0.60000000      0.60000000      0.60000000      0.60000000      0.60000000
      0.60000000      0.60000000      0.60000000      0.60000000      0.60000000      0.60000000      0.60000000      0.60000000      0.60000000      0.60000000      0.60000000      0.60000000      0.60000000      0.60000000      0.60000000      0.60000000      0.60000000      0.60000000</v>
  <i type="string" name="LREAL"> Auto</i>
  <i type="int" name="ISMEAR">     0</i>
  <i name="SIGMA">      0.05000000</i>
  <i type="int" name="LMAXMIX">     4</i>
  <v type="int" name="KPOINT_BSE">    -1     0     0     0</v>
  <i type="int" name="NELM">    40</i>
  <i type="logical" name="LDAU"> T  </i>
  <v type="int" name="LDAUTYPE">     2</v>
  <v type="int" name="LDAUL">     0     2     2     0</v>
  <v name="LDAUU">      0.00000000      3.00000000      5.00000000      0.00000000</v>
  <v name="LDAUJ">      0.00000000      0.00000000      0.00000000      0.00000000</v>
  <i type="int" name="LDAUPRINT">     1</i>
 </incar>
 <kpoints>
  <generation param="Monkhorst-Pack">
   <v type="int" name="divisions">       2        2        2 </v>
   <v name="usershift">      0.00000000       0.00000000       0.00000000 </v>
   <v name="genvec1">      0.50000000       0.00000000       0.00000000 </v>
   <v name="genvec2">     -0.00000000       0.50000000       0.00000000 </v>
   <v name="genvec3">      0.00000000       0.00000000       0.50000000 </v>
   <v name="shift">      0.50000000       0.50000000       0.50000000 </v>
  </generation>
  <varray name="kpointlist" >
   <v>       0.25000000       0.25000000       0.25000000 </v>
   <v>      -0.25000000       0.25000000       0.25000000 </v>
  </varray>
  <varray name="weights" >
   <v>       0.50000000 </v>
   <v>       0.50000000 </v>
  </varray>
 </kpoints>
 <parameters>
  <separator name="general" >
   <i type="string" name="SYSTEM">STF</i>
   <i type="logical" name="LCOMPAT"> F  </i>
  </separator>
  <separator name="electronic" >
   <i type="string" name="PREC">normal</i>
   <i name="ENMAX">    520.00000000</i>
   <i name="ENAUG">    605.39200000</i>
   <i name="EDIFF">      0.00010000</i>
   <i type="int" name="IALGO">    68</i>
   <i type="int" name="IWAVPR">    11</i>
   <i type="int" name="NBANDS">   768</i>
   <i name="NELECT">   1028.00000000</i>
   <i type="int" name="TURBO">     0</i>
   <i type="int" name="IRESTART">     0</i>
   <i type="int" name="NREBOOT">     0</i>
   <i type="int" name="NMIN">     0</i>
   <i name="EREF">      0.00000000</i>
   <separator name="electronic smearing" >
    <i type="int" name="ISMEAR">     0</i>
    <i name="SIGMA">      0.05000000</i>
    <i name="KSPACING">      0.50000000</i>
    <i type="logical" name="KGAMMA"> T  </i>
   </separator>
   <separator name="electronic projectors" >
    <i type="logical" name="LREAL"> T  </i>
    <v name="ROPT">     -0.00050000     -0.00050000     -0.00050000     -0.00050000</v>
    <i type="int" name="LMAXPAW">  -100</i>
    <i type="int" name="LMAXMIX">     4</i>
    <i type="logical" name="NLSPLINE"> F  </i>
   </separator>
   <separator name="electronic startup" >
    <i type="int" name="ISTART">     1</i>
    <i type="int" name="ICHARG">     0</i>
    <i type="int" name="INIWAV">     1</i>
   </separator>
   <separator name="electronic spin" >
    <i type="int" name="ISPIN">     2</i>
    <i type="logical" name="LNONCOLLINEAR"> F  </i>
    <v name="MAGMOM">      0.60000000      0.60000000      0.60000000      0.60000000      0.60000000      0.60000000      0.60000000      0.60000000      0.60000000      0.60000000      0.60000000      0.60000000      0.60000000      0.60000000      0.60000000      0.60000000      0.60000000      0.60000000      0.60000000      0.60000000
      0.60000000      0.60000000      0.60000000      0.60000000      0.60000000      0.60000000      0.60000000      0.60000000      0.60000000      0.60000000      0.60000000      0.60000000      0.60000000      0.60000000      0.60000000      0.60000000      0.60000000      0.60000000      0.60000000      0.60000000
      0.60000000      0.60000000      0.60000000      0.60000000      0.60000000      0.60000000      0.60000000      0.60000000      0.60000000      0.60000000      0.60000000      0.60000000      0.60000000      0.60000000      0.60000000      0.60000000      0.60000000      0.60000000      0.60000000      0.60000000
      5.00000000      5.00000000      5.00000000      5.00000000      0.60000000      0.60000000      0.60000000      0.60000000      0.60000000      0.60000000      0.60000000      0.60000000      0.60000000      0.60000000      0.60000000      0.60000000      0.60000000      0.60000000      0.60000000      0.60000000
      0.60000000      0.60000000      0.60000000      0.60000000      0.60000000      0.60000000      0.60000000      0.60000000      0.60000000      0.60000000      0.60000000      0.60000000      0.60000000      0.60000000      0.60000000      0.60000000      0.60000000      0.60000000      0.60000000      0.60000000
      0.60000000      0.60000000      0.60000000      0.60000000      0.60000000      0.60000000      0.60000000      0.60000000      0.60000000      0.60000000      0.60000000      0.60000000      0.60000000      0.60000000      0.60000000      0.60000000      0.60000000      0.60000000      0.60000000      0.60000000
      0.60000000      0.60000000      0.60000000      0.60000000      0.60000000      0.60000000      0.60000000      0.60000000      0.60000000      0.60000000      0.60000000      0.60000000      0.60000000      0.60000000      0.60000000      0.60000000      0.60000000      0.60000000      0.60000000      0.60000000
      0.60000000      0.60000000      0.60000000      0.60000000      0.60000000      0.60000000      0.60000000      0.60000000      0.60000000      0.60000000      0.60000000      0.60000000      0.60000000      0.60000000      0.60000000      0.60000000      0.60000000      0.60000000</v>
    <i name="NUPDOWN">     -1.00000000</i>
    <i type="logical" name="LSORBIT"> F  </i>
    <v name="SAXIS">      0.00000000      0.00000000      1.00000000</v>
    <i type="logical" name="LSPIRAL"> F  </i>
    <v name="QSPIRAL">      0.00000000      0.00000000      0.00000000</v>
    <i type="logical" name="LZEROZ"> F  </i>
   </separator>
   <separator name="electronic exchange-correlation" >
    <i type="logical" name="LASPH"> F  </i>
    <i type="logical" name="LMETAGGA"> F  </i>
   </separator>
   <separator name="electronic convergence" >
    <i type="int" name="NELM">    40</i>
    <i type="int" name="NELMDL">     0</i>
    <i type="int" name="NELMIN">     8</i>
    <i name="ENINI">    520.00000000</i>
    <separator name="electronic convergence detail" >
     <i type="logical" name="LDIAG"> T  </i>
     <i type="logical" name="LSUBROT"> F  </i>
     <i name="WEIMIN">      0.00100000</i>
     <i name="EBREAK">      0.00000003</i>
     <i name="DEPER">      0.30000000</i>
     <i type="int" name="NRMM">     4</i>
     <i name="TIME">      0.40000000</i>
    </separator>
   </separator>
   <separator name="electronic mixer" >
    <i name="AMIX">      0.40000000</i>
    <i name="BMIX">      1.00000000</i>
    <i name="AMIN">      0.10000000</i>
    <i name="AMIX_MAG">      1.60000000</i>
    <i name="BMIX_MAG">      1.00000000</i>
    <separator name="electronic mixer details" >
     <i type="int" name="IMIX">     4</i>
     <i type="logical" name="MIXFIRST"> F  </i>
     <i type="int" name="MAXMIX">   -45</i>
     <i name="WC">    100.00000000</i>
     <i type="int" name="INIMIX">     1</i>
     <i type="int" name="MIXPRE">     1</i>
     <i type="int" name="MREMOVE">     5</i>
    </separator>
   </separator>
   <separator name="electronic dipolcorrection" >
    <i type="logical" name="LDIPOL"> F  </i>
    <i type="logical" name="LMONO"> F  </i>
    <i type="int" name="IDIPOL">     0</i>
    <i name="EPSILON">      1.00000000</i>
    <v name="DIPOL">   -100.00000000   -100.00000000   -100.00000000</v>
    <i name="EFIELD">      0.00000000</i>
   </separator>
  </separator>
  <separator name="grids" >
   <i type="int" name="NGX">    64</i>
   <i type="int" name="NGY">    64</i>
   <i type="int" name="NGZ">    90</i>
   <i type="int" name="NGXF">   128</i>
   <i type="int" name="NGYF">   128</i>
   <i type="int" name="NGZF">   180</i>
   <i type="logical" name="ADDGRID"> F  </i>
  </separator>
  <separator name="ionic" >
   <i type="int" name="NSW">    30</i>
   <i type="int" name="IBRION">     2</i>
   <i type="int" name="ISIF">     3</i>
   <i name="PSTRESS">      0.00000000</i>
   <i name="EDIFFG">     -0.03000000</i>
   <i type="int" name="NFREE">     1</i>
   <i name="POTIM">      0.50000000</i>
   <i name="SMASS">     -3.00000000</i>
   <i name="SCALEE">      1.00000000</i>
  </separator>
  <separator name="ionic md" >
   <i name="TEBEG">      0.00010000</i>
   <i name="TEEND">      0.00010000</i>
   <i type="int" name="NBLOCK">     1</i>
   <i type="int" name="KBLOCK">    30</i>
   <i type="int" name="NPACO">   256</i>
   <i name="APACO">     16.00000000</i>
  </separator>
  <separator name="symmetry" >
   <i type="int" name="ISYM">     2</i>
   <i name="SYMPREC">      0.00001000</i>
  </separator>
  <separator name="dos" >
   <i type="logical" name="LORBIT"> F  </i>
   <v name="RWIGS">     -1.00000000     -1.00000000     -1.00000000     -1.00000000</v>
   <i type="int" name="NEDOS">   301</i>
   <i name="EMIN">     10.00000000</i>
   <i name="EMAX">    -10.00000000</i>
   <i name="EFERMI">      0.00000000</i>
  </separator>
  <separator name="writing" >
   <i type="int" name="NWRITE">     2</i>
   <i type="logical" name="LWAVE"> T  </i>
   <i type="logical" name="LCHARG"> T  </i>
   <i type="logical" name="LPARD"> F  </i>
   <i type="logical" name="LVTOT"> F  </i>
   <i type="logical" name="LVHAR"> F  </i>
   <i type="logical" name="LELF"> F  </i>
   <i type="logical" name="LOPTICS"> F  </i>
   <v name="STM">      0.00000000      0.00000000      0.00000000      0.00000000      0.00000000      0.00000000      0.00000000</v>
  </separator>
  <separator name="performance" >
   <i type="int" name="NPAR">     2</i>
   <i type="int" name="NSIM">     4</i>
   <i type="int" name="NBLK">    -1</i>
   <i type="logical" name="LPLANE"> T  </i>
   <i type="logical" name="LSCALAPACK"> T  </i>
   <i type="logical" name="LSCAAWARE"> F  </i>
   <i type="logical" name="LSCALU"> F  </i>
   <i type="logical" name="LASYNC"> F  </i>
   <i type="logical" name="LORBITALREAL"> F  </i>
  </separator>
  <separator name="miscellaneous" >
   <i type="int" name="IDIOT">     3</i>
   <i type="logical" name="LMUSIC"> F  </i>
   <v name="POMASS">     87.62000000     47.88000000     55.84700000     16.00000000</v>
   <v name="DARWINR">      0.00000000      0.00000000      0.00000000      0.00000000</v>
   <v name="DARWINV">      1.00000000      1.00000000      1.00000000      1.00000000</v>
   <i type="logical" name="LCORR"> T  </i>
  </separator>
  <i type="logical" name="GGA_COMPAT"> T  </i>
  <i type="logical" name="LBERRY"> F  </i>
  <i type="int" name="ICORELEVEL">     0</i>
  <i type="logical" name="LDAU"> T  </i>
  <v type="int" name="LDAUTYPE">     2</v>
  <v type="int" name="LDAUL">     0</v>
  <v name="LDAUU">      0.00000000</v>
  <v name="LDAUJ">      0.00000000</v>
  <i type="int" name="LDAUPRINT">     1</i>
  <i type="int" name="I_CONSTRAINED_M">     0</i>
  <separator name="electronic exchange-correlation" >
   <i type="string" name="GGA">--</i>
   <i type="int" name="VOSKOWN">     0</i>
   <i type="logical" name="LHFCALC"> F  </i>
   <i type="string" name="PRECFOCK"></i>
   <i type="logical" name="LSYMGRAD"> F  </i>
   <i type="logical" name="LHFONE"> F  </i>
   <i type="logical" name="LRHFCALC"> F  </i>
   <i type="logical" name="LTHOMAS"> F  </i>
   <i type="logical" name="LMODELHF"> F  </i>
   <i name="ENCUT4O">     -1.00000000</i>
   <i type="int" name="EXXOEP">     0</i>
   <i type="int" name="FOURORBIT">     0</i>
   <i name="AEXX">      0.00000000</i>
   <i name="HFALPHA">      0.00000000</i>
   <i name="MCALPHA">      0.00000000</i>
   <i name="ALDAX">      1.00000000</i>
   <i name="AGGAX">      1.00000000</i>
   <i name="ALDAC">      1.00000000</i>
   <i name="AGGAC">      1.00000000</i>
   <i type="int" name="NKREDX">     1</i>
   <i type="int" name="NKREDY">     1</i>
   <i type="int" name="NKREDZ">     1</i>
   <i type="logical" name="SHIFTRED"> F  </i>
   <i type="logical" name="ODDONLY"> F  </i>
   <i type="logical" name="EVENONLY"> F  </i>
   <i type="int" name="LMAXFOCK">     0</i>
   <i type="int" name="NMAXFOCKAE">     0</i>
   <i type="logical" name="LFOCKAEDFT"> F  </i>
   <i name="HFSCREEN">      0.00000000</i>
   <i name="HFSCREENC">      0.00000000</i>
   <i type="int" name="NBANDSGWLOW">     0</i>
  </separator>
  <separator name="vdW DFT" >
   <i type="logical" name="LUSE_VDW"> F  </i>
   <i name="Zab_VDW">     -0.84910000</i>
   <i name="PARAM1">      0.12340000</i>
   <i name="PARAM2">      1.00000000</i>
   <i name="PARAM3">      0.00000000</i>
  </separator>
  <separator name="model GW" >
   <i type="int" name="MODEL_GW">     0</i>
   <i name="MODEL_EPS0">      7.61084310</i>
   <i name="MODEL_ALPHA">      1.00000000</i>
  </separator>
  <separator name="linear response parameters" >
   <i type="logical" name="LEPSILON"> F  </i>
   <i type="logical" name="LRPA"> F  </i>
   <i type="logical" name="LNABLA"> F  </i>
   <i type="logical" name="LVEL"> F  </i>
   <i type="int" name="KINTER">     0</i>
   <i name="CSHIFT">      0.10000000</i>
   <i name="OMEGAMAX">     -1.00000000</i>
   <i name="DEG_THRESHOLD">      0.00200000</i>
  </separator>
  <separator name="orbital magnetization" >
   <i type="logical" name="NUCIND"> F  </i>
   <v name="MAGPOS">      0.00000000      0.00000000      0.00000000</v>
   <i type="logical" name="LNICSALL"> T  </i>
   <i type="logical" name="ORBITALMAG"> F  </i>
   <i type="logical" name="LMAGBLOCH"> F  </i>
   <i type="logical" name="LCHIMAG"> F  </i>
   <i type="logical" name="LGAUGE"> T  </i>
   <i type="int" name="MAGATOM">     0</i>
   <v name="MAGDIPOL">      0.00000000      0.00000000      0.00000000</v>
   <v name="AVECCONST">      0.00000000      0.00000000      0.00000000</v>
  </separator>
  <separator name="response functions" >
   <i type="logical" name="LADDER"> F  </i>
   <i type="logical" name="LFXC"> F  </i>
   <i type="logical" name="LHARTREE"> T  </i>
   <i type="int" name="IBSE">     0</i>
   <v type="int" name="KPOINT">    -1     0     0     0</v>
   <i type="logical" name="LTCTE"> F  </i>
   <i type="logical" name="LTETE"> F  </i>
   <i type="logical" name="LTRIPLET"> F  </i>
   <i type="logical" name="LFXCEPS"> F  </i>
   <i type="logical" name="LFXHEG"> F  </i>
   <i type="int" name="NATURALO">     0</i>
   <i type="logical" name="L2ORDER"> F  </i>
   <i type="logical" name="LUSEW"> F  </i>
   <i name="ENCUTGW">     -2.00000000</i>
   <i name="ENCUTGWSOFT">     -2.00000000</i>
   <i name="ENCUTLF">     -1.00000000</i>
   <i type="int" name="LMAXMP2">    -1</i>
   <i name="SCISSOR">      0.00000000</i>
   <i type="int" name="NOMEGA">     0</i>
   <i type="int" name="NOMEGAR">     0</i>
   <i type="int" name="NBANDSGW">    -1</i>
   <i type="int" name="NBANDSO">    -1</i>
   <i type="int" name="NBANDSV">    -1</i>
   <i type="int" name="NELM">    40</i>
   <i type="int" name="NELMHF">     1</i>
   <i type="int" name="DIM">     3</i>
   <i type="int" name="ANTIRES">     0</i>
   <i name="OMEGAMAX">    -30.00000000</i>
   <i name="OMEGAMIN">    -30.00000000</i>
   <i name="OMEGATL">   -200.00000000</i>
   <i type="int" name="OMEGAGRID">     0</i>
   <i name="CSHIFT">     -0.10000000</i>
   <i type="logical" name="SELFENERGY"> F  </i>
   <i type="logical" name="LSPECTRAL"> F  </i>
   <i type="logical" name="LSPECTRALGW"> F  </i>
   <i type="logical" name="LSINGLES"> F  </i>
   <i type="logical" name="LFERMIGW"> F  </i>
   <i type="logical" name="ODDONLYGW"> F  </i>
   <i type="logical" name="EVENONLYGW"> F  </i>
   <i type="int" name="NKREDLFX">     1</i>
   <i type="int" name="NKREDLFY">     1</i>
   <i type="int" name="NKREDLFZ">     1</i>
   <i type="int" name="MAXMEM">  1800</i>
   <i type="int" name="TELESCOPE">     0</i>
   <i type="int" name="TAUPAR">     1</i>
   <i type="int" name="OMEGAPAR">    -1</i>
   <i name="LAMBDA">      1.00000000</i>
  </separator>
  <separator name="External order field" >
   <i name="OFIELD_KAPPA">      0.00000000</i>
   <v name="OFIELD_K">      0.00000000      0.00000000      0.00000000</v>
   <i name="OFIELD_Q6_NEAR">      0.00000000</i>
   <i name="OFIELD_Q6_FAR">      0.00000000</i>
   <i name="OFIELD_A">      0.00000000</i>
  </separator>
 </parameters>
 <atominfo>
  <atoms>     158 </atoms>
  <types>       4 </types>
  <array name="atoms" >
   <dimension dim="1">ion</dimension>
   <field type="string">element</field>
   <field type="int">atomtype</field>
   <set>
    <rc><c>Sr</c><c>   1</c></rc>
    <rc><c>Sr</c><c>   1</c></rc>
    <rc><c>Sr</c><c>   1</c></rc>
    <rc><c>Sr</c><c>   1</c></rc>
    <rc><c>Sr</c><c>   1</c></rc>
    <rc><c>Sr</c><c>   1</c></rc>
    <rc><c>Sr</c><c>   1</c></rc>
    <rc><c>Sr</c><c>   1</c></rc>
    <rc><c>Sr</c><c>   1</c></rc>
    <rc><c>Sr</c><c>   1</c></rc>
    <rc><c>Sr</c><c>   1</c></rc>
    <rc><c>Sr</c><c>   1</c></rc>
    <rc><c>Sr</c><c>   1</c></rc>
    <rc><c>Sr</c><c>   1</c></rc>
    <rc><c>Sr</c><c>   1</c></rc>
    <rc><c>Sr</c><c>   1</c></rc>
    <rc><c>Sr</c><c>   1</c></rc>
    <rc><c>Sr</c><c>   1</c></rc>
    <rc><c>Sr</c><c>   1</c></rc>
    <rc><c>Sr</c><c>   1</c></rc>
    <rc><c>Sr</c><c>   1</c></rc>
    <rc><c>Sr</c><c>   1</c></rc>
    <rc><c>Sr</c><c>   1</c></rc>
    <rc><c>Sr</c><c>   1</c></rc>
    <rc><c>Sr</c><c>   1</c></rc>
    <rc><c>Sr</c><c>   1</c></rc>
    <rc><c>Sr</c><c>   1</c></rc>
    <rc><c>Sr</c><c>   1</c></rc>
    <rc><c>Sr</c><c>   1</c></rc>
    <rc><c>Sr</c><c>   1</c></rc>
    <rc><c>Sr</c><c>   1</c></rc>
    <rc><c>Sr</c><c>   1</c></rc>
    <rc><c>Ti</c><c>   2</c></rc>
    <rc><c>Ti</c><c>   2</c></rc>
    <rc><c>Ti</c><c>   2</c></rc>
    <rc><c>Ti</c><c>   2</c></rc>
    <rc><c>Ti</c><c>   2</c></rc>
    <rc><c>Ti</c><c>   2</c></rc>
    <rc><c>Ti</c><c>   2</c></rc>
    <rc><c>Ti</c><c>   2</c></rc>
    <rc><c>Ti</c><c>   2</c></rc>
    <rc><c>Ti</c><c>   2</c></rc>
    <rc><c>Ti</c><c>   2</c></rc>
    <rc><c>Ti</c><c>   2</c></rc>
    <rc><c>Ti</c><c>   2</c></rc>
    <rc><c>Ti</c><c>   2</c></rc>
    <rc><c>Ti</c><c>   2</c></rc>
    <rc><c>Ti</c><c>   2</c></rc>
    <rc><c>Ti</c><c>   2</c></rc>
    <rc><c>Ti</c><c>   2</c></rc>
    <rc><c>Ti</c><c>   2</c></rc>
    <rc><c>Ti</c><c>   2</c></rc>
    <rc><c>Ti</c><c>   2</c></rc>
    <rc><c>Ti</c><c>   2</c></rc>
    <rc><c>Ti</c><c>   2</c></rc>
    <rc><c>Ti</c><c>   2</c></rc>
    <rc><c>Ti</c><c>   2</c></rc>
    <rc><c>Ti</c><c>   2</c></rc>
    <rc><c>Ti</c><c>   2</c></rc>
    <rc><c>Ti</c><c>   2</c></rc>
    <rc><c>Fe</c><c>   3</c></rc>
    <rc><c>Fe</c><c>   3</c></rc>
    <rc><c>Fe</c><c>   3</c></rc>
    <rc><c>Fe</c><c>   3</c></rc>
    <rc><c>O </c><c>   4</c></rc>
    <rc><c>O </c><c>   4</c></rc>
    <rc><c>O </c><c>   4</c></rc>
    <rc><c>O </c><c>   4</c></rc>
    <rc><c>O </c><c>   4</c></rc>
    <rc><c>O </c><c>   4</c></rc>
    <rc><c>O </c><c>   4</c></rc>
    <rc><c>O </c><c>   4</c></rc>
    <rc><c>O </c><c>   4</c></rc>
    <rc><c>O </c><c>   4</c></rc>
    <rc><c>O </c><c>   4</c></rc>
    <rc><c>O </c><c>   4</c></rc>
    <rc><c>O </c><c>   4</c></rc>
    <rc><c>O </c><c>   4</c></rc>
    <rc><c>O </c><c>   4</c></rc>
    <rc><c>O </c><c>   4</c></rc>
    <rc><c>O </c><c>   4</c></rc>
    <rc><c>O </c><c>   4</c></rc>
    <rc><c>O </c><c>   4</c></rc>
    <rc><c>O </c><c>   4</c></rc>
    <rc><c>O </c><c>   4</c></rc>
    <rc><c>O </c><c>   4</c></rc>
    <rc><c>O </c><c>   4</c></rc>
    <rc><c>O </c><c>   4</c></rc>
    <rc><c>O </c><c>   4</c></rc>
    <rc><c>O </c><c>   4</c></rc>
    <rc><c>O </c><c>   4</c></rc>
    <rc><c>O </c><c>   4</c></rc>
    <rc><c>O </c><c>   4</c></rc>
    <rc><c>O </c><c>   4</c></rc>
    <rc><c>O </c><c>   4</c></rc>
    <rc><c>O </c><c>   4</c></rc>
    <rc><c>O </c><c>   4</c></rc>
    <rc><c>O </c><c>   4</c></rc>
    <rc><c>O </c><c>   4</c></rc>
    <rc><c>O </c><c>   4</c></rc>
    <rc><c>O </c><c>   4</c></rc>
    <rc><c>O </c><c>   4</c></rc>
    <rc><c>O </c><c>   4</c></rc>
    <rc><c>O </c><c>   4</c></rc>
    <rc><c>O </c><c>   4</c></rc>
    <rc><c>O </c><c>   4</c></rc>
    <rc><c>O </c><c>   4</c></rc>
    <rc><c>O </c><c>   4</c></rc>
    <rc><c>O </c><c>   4</c></rc>
    <rc><c>O </c><c>   4</c></rc>
    <rc><c>O </c><c>   4</c></rc>
    <rc><c>O </c><c>   4</c></rc>
    <rc><c>O </c><c>   4</c></rc>
    <rc><c>O </c><c>   4</c></rc>
    <rc><c>O </c><c>   4</c></rc>
    <rc><c>O </c><c>   4</c></rc>
    <rc><c>O </c><c>   4</c></rc>
    <rc><c>O </c><c>   4</c></rc>
    <rc><c>O </c><c>   4</c></rc>
    <rc><c>O </c><c>   4</c></rc>
    <rc><c>O </c><c>   4</c></rc>
    <rc><c>O </c><c>   4</c></rc>
    <rc><c>O </c><c>   4</c></rc>
    <rc><c>O </c><c>   4</c></rc>
    <rc><c>O </c><c>   4</c></rc>
    <rc><c>O </c><c>   4</c></rc>
    <rc><c>O </c><c>   4</c></rc>
    <rc><c>O </c><c>   4</c></rc>
    <rc><c>O </c><c>   4</c></rc>
    <rc><c>O </c><c>   4</c></rc>
    <rc><c>O </c><c>   4</c></rc>
    <rc><c>O </c><c>   4</c></rc>
    <rc><c>O </c><c>   4</c></rc>
    <rc><c>O </c><c>   4</c></rc>
    <rc><c>O </c><c>   4</c></rc>
    <rc><c>O </c><c>   4</c></rc>
    <rc><c>O </c><c>   4</c></rc>
    <rc><c>O </c><c>   4</c></rc>
    <rc><c>O </c><c>   4</c></rc>
    <rc><c>O </c><c>   4</c></rc>
    <rc><c>O </c><c>   4</c></rc>
    <rc><c>O </c><c>   4</c></rc>
    <rc><c>O </c><c>   4</c></rc>
    <rc><c>O </c><c>   4</c></rc>
    <rc><c>O </c><c>   4</c></rc>
    <rc><c>O </c><c>   4</c></rc>
    <rc><c>O </c><c>   4</c></rc>
    <rc><c>O </c><c>   4</c></rc>
    <rc><c>O </c><c>   4</c></rc>
    <rc><c>O </c><c>   4</c></rc>
    <rc><c>O </c><c>   4</c></rc>
    <rc><c>O </c><c>   4</c></rc>
    <rc><c>O </c><c>   4</c></rc>
    <rc><c>O </c><c>   4</c></rc>
    <rc><c>O </c><c>   4</c></rc>
    <rc><c>O </c><c>   4</c></rc>
    <rc><c>O </c><c>   4</c></rc>
    <rc><c>O </c><c>   4</c></rc>
   </set>
  </array>
  <array name="atomtypes" >
   <dimension dim="1">type</dimension>
   <field type="int">atomspertype</field>
   <field type="string">element</field>
   <field>mass</field>
   <field>valence</field>
   <field type="string">pseudopotential</field>
   <set>
    <rc><c>  32</c><c>Sr</c><c>     87.62000000</c><c>     10.00000000</c><c>  PAW_PBE Sr_sv 07Sep2000               </c></rc>
    <rc><c>  28</c><c>Ti</c><c>     47.88000000</c><c>      4.00000000</c><c>  PAW_PBE Ti 08Apr2002                  </c></rc>
    <rc><c>   4</c><c>Fe</c><c>     55.84700000</c><c>      8.00000000</c><c>  PAW_PBE Fe 06Sep2000                  </c></rc>
    <rc><c>  94</c><c>O </c><c>     16.00000000</c><c>      6.00000000</c><c>  PAW_PBE O 08Apr2002                   </c></rc>
   </set>
  </array>
 </atominfo>
 <structure name="initialpos" >
  <crystal>
   <varray name="basis" >
    <v>      11.21559082      -0.00206441       0.00000000 </v>
    <v>      -0.00205556      11.21850755       0.00000000 </v>
    <v>       0.00000000       0.00000000      15.92873837 </v>
   </varray>
   <i name="volume">   2004.18868185 </i>
   <varray name="rec_basis" >
    <v>       0.08916160       0.00001634       0.00000000 </v>
    <v>       0.00001641       0.08913842       0.00000000 </v>
    <v>       0.00000000       0.00000000       0.06277961 </v>
   </varray>
  </crystal>
  <varray name="positions" >
   <v>       0.00342938       0.25018591       0.12222159 </v>
   <v>       0.00053812       0.24885087       0.62655943 </v>
   <v>       0.99764468       0.75004175       0.12496314 </v>
   <v>       0.99786092       0.75132720       0.62576983 </v>
   <v>       0.49379925       0.25045594       0.12266050 </v>
   <v>       0.50062285       0.24931977       0.62538527 </v>
   <v>       0.49933722       0.74847658       0.12263043 </v>
   <v>       0.50233193       0.75087837       0.62701810 </v>
   <v>       0.00342938       0.25018591       0.37777841 </v>
   <v>       0.00053812       0.24885087       0.87344057 </v>
   <v>       0.99764468       0.75004175       0.37503686 </v>
   <v>       0.99786092       0.75132720       0.87423017 </v>
   <v>       0.49379925       0.25045594       0.37733950 </v>
   <v>       0.50062285       0.24931977       0.87461473 </v>
   <v>       0.49933722       0.74847658       0.37736957 </v>
   <v>       0.50233193       0.75087837       0.87298190 </v>
   <v>       0.25220395       0.00214624       0.12455140 </v>
   <v>       0.25051478       0.00026128       0.62534668 </v>
   <v>       0.24921211       0.49959342       0.12382438 </v>
   <v>       0.25002572       0.49966999       0.62580893 </v>
   <v>       0.74787476       0.99075231       0.11780023 </v>
   <v>       0.75062679       0.99693356       0.62778721 </v>
   <v>       0.74808008       0.51071342       0.12381218 </v>
   <v>       0.75044636       0.50150315       0.62634044 </v>
   <v>       0.25220395       0.00214624       0.37544860 </v>
   <v>       0.25051478       0.00026128       0.87465332 </v>
   <v>       0.24921211       0.49959342       0.37617562 </v>
   <v>       0.25002572       0.49966999       0.87419107 </v>
   <v>       0.74787476       0.99075231       0.38219977 </v>
   <v>       0.75062679       0.99693356       0.87221279 </v>
   <v>       0.74808008       0.51071342       0.37618782 </v>
   <v>       0.75044636       0.50150315       0.87365956 </v>
   <v>       0.99988571       0.00063496       0.00170930 </v>
   <v>       0.99988571       0.00063496       0.49829070 </v>
   <v>       0.99970556       0.49973012       0.00043810 </v>
   <v>       0.99970556       0.49973012       0.49956190 </v>
   <v>       0.50020524       0.00053898       0.00095504 </v>
   <v>       0.50020524       0.00053898       0.49904496 </v>
   <v>       0.49994049       0.49990402       0.99998157 </v>
   <v>       0.49994049       0.49990402       0.50001843 </v>
   <v>       0.24980832       0.25003247       0.99942322 </v>
   <v>       0.24980832       0.25003247       0.50057678 </v>
   <v>       0.24968849       0.74984922       0.00011033 </v>
   <v>       0.24968849       0.74984922       0.49988967 </v>
   <v>       0.74976277       0.24776898       0.00083331 </v>
   <v>       0.74976277       0.24776898       0.49916669 </v>
   <v>       0.74989337       0.74951048       0.99714970 </v>
   <v>       0.74989337       0.74951048       0.50285030 </v>
   <v>       0.24933042       0.24942976       0.25000000 </v>
   <v>       0.25014637       0.25018099       0.75000000 </v>
   <v>       0.25027322       0.74667133       0.25000000 </v>
   <v>       0.24966878       0.75062759       0.75000000 </v>
   <v>       0.75020200       0.25100202       0.75000000 </v>
   <v>       0.74935360       0.75634878       0.25000000 </v>
   <v>       0.99973217       0.99842641       0.75000000 </v>
   <v>       0.00227138       0.50240150       0.25000000 </v>
   <v>       0.99774542       0.50079493       0.75000000 </v>
   <v>       0.50078171       0.99858511       0.75000000 </v>
   <v>       0.49697851       0.50287369       0.25000000 </v>
   <v>       0.50144648       0.50033864       0.75000000 </v>
   <v>       0.01486601       0.99054292       0.25000000 </v>
   <v>       0.49124393       0.98617648       0.25000000 </v>
   <v>       0.75407372       0.27580274       0.25000000 </v>
   <v>       0.74984083       0.74944943       0.75000000 </v>
   <v>       0.99085522       0.00890190       0.12728789 </v>
   <v>       0.00152283       0.00052610       0.62412667 </v>
   <v>       0.00330289       0.50338421       0.12546475 </v>
   <v>       0.99566390       0.49584369       0.62373732 </v>
   <v>       0.50680392       0.01048888       0.12650541 </v>
   <v>       0.49731138       0.99865016       0.62456036 </v>
   <v>       0.49822806       0.50483680       0.12502471 </v>
   <v>       0.50201169       0.49447410       0.62409560 </v>
   <v>       0.99085522       0.00890190       0.37271211 </v>
   <v>       0.00152283       0.00052610       0.87587333 </v>
   <v>       0.00330289       0.50338421       0.37453525 </v>
   <v>       0.99566390       0.49584369       0.87626268 </v>
   <v>       0.50680392       0.01048888       0.37349459 </v>
   <v>       0.49731138       0.99865016       0.87543964 </v>
   <v>       0.49822806       0.50483680       0.37497529 </v>
   <v>       0.50201169       0.49447410       0.87590440 </v>
   <v>       0.25036339       0.25039953       0.37526141 </v>
   <v>       0.24956873       0.25060602       0.87544121 </v>
   <v>       0.25058158       0.74562669       0.37531883 </v>
   <v>       0.24876252       0.75302298       0.87539144 </v>
   <v>       0.74476037       0.21640728       0.36107760 </v>
   <v>       0.75023212       0.25563582       0.87704639 </v>
   <v>       0.74946807       0.74942992       0.37516061 </v>
   <v>       0.74927926       0.74991715       0.87611396 </v>
   <v>       0.25036339       0.25039953       0.12473859 </v>
   <v>       0.24956873       0.25060602       0.62455879 </v>
   <v>       0.25058158       0.74562669       0.12468117 </v>
   <v>       0.24876252       0.75302298       0.62460856 </v>
   <v>       0.74476037       0.21640728       0.13892240 </v>
   <v>       0.75023212       0.25563582       0.62295361 </v>
   <v>       0.74946807       0.74942992       0.12483939 </v>
   <v>       0.74927926       0.74991715       0.62388604 </v>
   <v>       0.10694647       0.14386771       0.25000000 </v>
   <v>       0.36785779       0.11487025       0.25000000 </v>
   <v>       0.14430614       0.39428132       0.25000000 </v>
   <v>       0.39254700       0.35997377       0.25000000 </v>
   <v>       0.63851636       0.39471640       0.25000000 </v>
   <v>       0.90024169       0.35542989       0.25000000 </v>
   <v>       0.10696039       0.64438719       0.25000000 </v>
   <v>       0.35541956       0.60575475       0.25000000 </v>
   <v>       0.60700880       0.64562603       0.25000000 </v>
   <v>       0.85953718       0.61102267       0.25000000 </v>
   <v>       0.14962323       0.89122192       0.25000000 </v>
   <v>       0.39304097       0.85075385       0.25000000 </v>
   <v>       0.64671116       0.90290450       0.25000000 </v>
   <v>       0.88846915       0.86641804       0.25000000 </v>
   <v>       0.14054130       0.10991274       0.49871528 </v>
   <v>       0.38990952       0.14057145       0.50034984 </v>
   <v>       0.64064713       0.10952552       0.50451712 </v>
   <v>       0.88967574       0.14079903       0.50122195 </v>
   <v>       0.10998790       0.36003943       0.49994233 </v>
   <v>       0.36078222       0.38939529       0.49893163 </v>
   <v>       0.61160620       0.35811129       0.49220352 </v>
   <v>       0.85866890       0.38670075       0.48955662 </v>
   <v>       0.13932231       0.60983567       0.50193136 </v>
   <v>       0.38999296       0.63970294       0.50256414 </v>
   <v>       0.63948462       0.60954480       0.50050010 </v>
   <v>       0.88903848       0.63827401       0.49941417 </v>
   <v>       0.10986100       0.86107609       0.49615037 </v>
   <v>       0.36073876       0.89029002       0.49625519 </v>
   <v>       0.61035502       0.86077069       0.49851498 </v>
   <v>       0.86131590       0.88867265       0.50107905 </v>
   <v>       0.11066386       0.14021548       0.75000000 </v>
   <v>       0.35998865       0.11058818       0.75000000 </v>
   <v>       0.61129792       0.14021214       0.75000000 </v>
   <v>       0.86026983       0.11227960       0.75000000 </v>
   <v>       0.13965601       0.39009594       0.75000000 </v>
   <v>       0.38967731       0.35958635       0.75000000 </v>
   <v>       0.64054066       0.38902664       0.75000000 </v>
   <v>       0.88989452       0.35903146       0.75000000 </v>
   <v>       0.11015678       0.63911580       0.75000000 </v>
   <v>       0.35990420       0.60968986       0.75000000 </v>
   <v>       0.60838261       0.63686780       0.75000000 </v>
   <v>       0.86182929       0.60863547       0.75000000 </v>
   <v>       0.14020092       0.89003450       0.75000000 </v>
   <v>       0.38881406       0.85948641       0.75000000 </v>
   <v>       0.63690990       0.89037024       0.75000000 </v>
   <v>       0.89050757       0.86297837       0.75000000 </v>
   <v>       0.14054130       0.10991274       0.00128472 </v>
   <v>       0.38990952       0.14057145       0.99965016 </v>
   <v>       0.64064713       0.10952552       0.99548288 </v>
   <v>       0.88967574       0.14079903       0.99877805 </v>
   <v>       0.10998790       0.36003943       0.00005767 </v>
   <v>       0.36078222       0.38939529       0.00106837 </v>
   <v>       0.61160620       0.35811129       0.00779648 </v>
   <v>       0.85866890       0.38670075       0.01044338 </v>
   <v>       0.13932231       0.60983567       0.99806864 </v>
   <v>       0.38999296       0.63970294       0.99743586 </v>
   <v>       0.63948462       0.60954480       0.99949990 </v>
   <v>       0.88903848       0.63827401       0.00058583 </v>
   <v>       0.10986100       0.86107609       0.00384963 </v>
   <v>       0.36073876       0.89029002       0.00374481 </v>
   <v>       0.61035502       0.86077069       0.00148502 </v>
   <v>       0.86131590       0.88867265       0.99892095 </v>
  </varray>
 </structure>
 <calculation>
  <scstep>
   <time name="dav">  145.69  145.81</time>
   <time name="total">  148.04  148.19</time>
   <energy>
    <i name="alphaZ">   5636.33442952 </i>
    <i name="ewald"> -61206.55123428 </i>
    <i name="hartreedc"> -15295.51509050 </i>
    <i name="XCdc">   2852.73174125 </i>
    <i name="pawpsdc"> 112040.73349904 </i>
    <i name="pawaedc">-110789.27260995 </i>
    <i name="eentropy">     -0.00000000 </i>
    <i name="bandstr">  -7041.97471405 </i>
    <i name="atom">  72650.08363186 </i>
    <i name="e_fr_energy">  -1153.43034712 </i>
    <i name="e_wo_entrp">  -1153.43034712 </i>
    <i name="e_0_energy">  -1153.43034712 </i>
   </energy>
  </scstep>
  <scstep>
   <time name="diag">   16.57   16.58</time>
   <time name="diis">   15.12   15.13</time>
   <time name="orth">    9.41    9.42</time>
   <time name="total">   43.43   43.49</time>
   <energy>
    <i name="e_fr_energy">  -1153.43034715 </i>
    <i name="e_wo_entrp">  -1153.43034715 </i>
    <i name="e_0_energy">  -1153.43034715 </i>
   </energy>
  </scstep>
  <scstep>
   <time name="diag">   16.57   16.57</time>
   <time name="diis">   13.96   13.96</time>
   <time name="orth">    9.44    9.44</time>
   <time name="total">   42.31   42.41</time>
   <energy>
    <i name="e_fr_energy">  -1153.43034731 </i>
    <i name="e_wo_entrp">  -1153.43034731 </i>
    <i name="e_0_energy">  -1153.43034731 </i>
   </energy>
  </scstep>
  <scstep>
   <time name="diag">   16.57   16.58</time>
   <time name="diis">   11.91   11.92</time>
   <time name="orth">    9.43    9.44</time>
   <time name="total">   40.25   40.39</time>
   <energy>
    <i name="e_fr_energy">  -1153.43034740 </i>
    <i name="e_wo_entrp">  -1153.43034740 </i>
    <i name="e_0_energy">  -1153.43034740 </i>
   </energy>
  </scstep>
  <scstep>
   <time name="diag">   16.58   16.59</time>
   <time name="diis">   11.40   11.41</time>
   <time name="orth">    9.44    9.45</time>
   <time name="total">   39.76   39.83</time>
   <energy>
    <i name="e_fr_energy">  -1153.43034748 </i>
    <i name="e_wo_entrp">  -1153.43034748 </i>
    <i name="e_0_energy">  -1153.43034748 </i>
   </energy>
  </scstep>
  <scstep>
   <time name="diag">   16.59   16.59</time>
   <time name="diis">   10.92   10.94</time>
   <time name="orth">    9.42    9.42</time>
   <time name="total">   39.28   39.37</time>
   <energy>
    <i name="e_fr_energy">  -1153.43034748 </i>
    <i name="e_wo_entrp">  -1153.43034748 </i>
    <i name="e_0_energy">  -1153.43034748 </i>
   </energy>
  </scstep>
  <scstep>
   <time name="diag">   16.60   16.62</time>
   <time name="diis">   10.77   10.77</time>
   <time name="orth">    9.40    9.41</time>
   <time name="total">   39.12   39.19</time>
   <energy>
    <i name="e_fr_energy">  -1153.43034748 </i>
    <i name="e_wo_entrp">  -1153.43034748 </i>
    <i name="e_0_energy">  -1153.43034748 </i>
   </energy>
  </scstep>
  <scstep>
   <time name="diag">   16.59   16.60</time>
   <time name="diis">   10.60   10.61</time>
   <time name="orth">    9.41    9.42</time>
   <time name="total">   37.18   37.29</time>
   <energy>
    <i name="alphaZ">   5636.33442952 </i>
    <i name="ewald"> -61206.55123428 </i>
    <i name="hartreedc"> -15295.51229442 </i>
    <i name="XCdc">   2852.73129865 </i>
    <i name="pawpsdc"> 112039.54620990 </i>
    <i name="pawaedc">-110788.08318571 </i>
    <i name="eentropy">     -0.00000000 </i>
    <i name="bandstr">  -7041.97920299 </i>
    <i name="atom">  72650.08363186 </i>
    <i name="e_fr_energy">  -1153.43034748 </i>
    <i name="e_wo_entrp">  -1153.43034748 </i>
    <i name="e_0_energy">  -1153.43034748 </i>
   </energy>
  </scstep>
  <structure>
   <crystal>
    <varray name="basis" >
     <v>      11.21559082      -0.00206441       0.00000000 </v>
     <v>      -0.00205556      11.21850755       0.00000000 </v>
     <v>       0.00000000       0.00000000      15.92873837 </v>
    </varray>
    <i name="volume">   2004.18868185 </i>
    <varray name="rec_basis" >
     <v>       0.08916160       0.00001634       0.00000000 </v>
     <v>       0.00001641       0.08913842       0.00000000 </v>
     <v>       0.00000000       0.00000000       0.06277961 </v>
    </varray>
   </crystal>
   <varray name="positions" >
    <v>       0.00342938       0.25018591       0.12222159 </v>
    <v>       0.00053812       0.24885087       0.62655943 </v>
    <v>       0.99764468       0.75004175       0.12496314 </v>
    <v>       0.99786092       0.75132720       0.62576983 </v>
    <v>       0.49379925       0.25045594       0.12266050 </v>
    <v>       0.50062285       0.24931977       0.62538527 </v>
    <v>       0.49933722       0.74847658       0.12263043 </v>
    <v>       0.50233193       0.75087837       0.62701810 </v>
    <v>       0.00342938       0.25018591       0.37777841 </v>
    <v>       0.00053812       0.24885087       0.87344057 </v>
    <v>       0.99764468       0.75004175       0.37503686 </v>
    <v>       0.99786092       0.75132720       0.87423017 </v>
    <v>       0.49379925       0.25045594       0.37733950 </v>
    <v>       0.50062285       0.24931977       0.87461473 </v>
    <v>       0.49933722       0.74847658       0.37736957 </v>
    <v>       0.50233193       0.75087837       0.87298190 </v>
    <v>       0.25220395       0.00214624       0.12455140 </v>
    <v>       0.25051478       0.00026128       0.62534668 </v>
    <v>       0.24921211       0.49959342       0.12382438 </v>
    <v>       0.25002572       0.49966999       0.62580893 </v>
    <v>       0.74787476       0.99075231       0.11780023 </v>
    <v>       0.75062679       0.99693356       0.62778721 </v>
    <v>       0.74808008       0.51071342       0.12381218 </v>
    <v>       0.75044636       0.50150315       0.62634044 </v>
    <v>       0.25220395       0.00214624       0.37544860 </v>
    <v>       0.25051478       0.00026128       0.87465332 </v>
    <v>       0.24921211       0.49959342       0.37617562 </v>
    <v>       0.25002572       0.49966999       0.87419107 </v>
    <v>       0.74787476       0.99075231       0.38219977 </v>
    <v>       0.75062679       0.99693356       0.87221279 </v>
    <v>       0.74808008       0.51071342       0.37618782 </v>
    <v>       0.75044636       0.50150315       0.87365956 </v>
    <v>       0.99988571       0.00063496       0.00170930 </v>
    <v>       0.99988571       0.00063496       0.49829070 </v>
    <v>       0.99970556       0.49973012       0.00043810 </v>
    <v>       0.99970556       0.49973012       0.49956190 </v>
    <v>       0.50020524       0.00053898       0.00095504 </v>
    <v>       0.50020524       0.00053898       0.49904496 </v>
    <v>       0.49994049       0.49990402       0.99998157 </v>
    <v>       0.49994049       0.49990402       0.50001843 </v>
    <v>       0.24980832       0.25003247       0.99942322 </v>
    <v>       0.24980832       0.25003247       0.50057678 </v>
    <v>       0.24968849       0.74984922       0.00011033 </v>
    <v>       0.24968849       0.74984922       0.49988967 </v>
    <v>       0.74976277       0.24776898       0.00083331 </v>
    <v>       0.74976277       0.24776898       0.49916669 </v>
    <v>       0.74989337       0.74951048       0.99714970 </v>
    <v>       0.74989337       0.74951048       0.50285030 </v>
    <v>       0.24933042       0.24942976       0.25000000 </v>
    <v>       0.25014637       0.25018099       0.75000000 </v>
    <v>       0.25027322       0.74667133       0.25000000 </v>
    <v>       0.24966878       0.75062759       0.75000000 </v>
    <v>       0.75020200       0.25100202       0.75000000 </v>
    <v>       0.74935360       0.75634878       0.25000000 </v>
    <v>       0.99973217       0.99842641       0.75000000 </v>
    <v>       0.00227138       0.50240150       0.25000000 </v>
    <v>       0.99774542       0.50079493       0.75000000 </v>
    <v>       0.50078171       0.99858511       0.75000000 </v>
    <v>       0.49697851       0.50287369       0.25000000 </v>
    <v>       0.50144648       0.50033864       0.75000000 </v>
    <v>       0.01486601       0.99054292       0.25000000 </v>
    <v>       0.49124393       0.98617648       0.25000000 </v>
    <v>       0.75407372       0.27580274       0.25000000 </v>
    <v>       0.74984083       0.74944943       0.75000000 </v>
    <v>       0.99085522       0.00890190       0.12728789 </v>
    <v>       0.00152283       0.00052610       0.62412667 </v>
    <v>       0.00330289       0.50338421       0.12546475 </v>
    <v>       0.99566390       0.49584369       0.62373732 </v>
    <v>       0.50680392       0.01048888       0.12650541 </v>
    <v>       0.49731138       0.99865016       0.62456036 </v>
    <v>       0.49822806       0.50483680       0.12502471 </v>
    <v>       0.50201169       0.49447410       0.62409560 </v>
    <v>       0.99085522       0.00890190       0.37271211 </v>
    <v>       0.00152283       0.00052610       0.87587333 </v>
    <v>       0.00330289       0.50338421       0.37453525 </v>
    <v>       0.99566390       0.49584369       0.87626268 </v>
    <v>       0.50680392       0.01048888       0.37349459 </v>
    <v>       0.49731138       0.99865016       0.87543964 </v>
    <v>       0.49822806       0.50483680       0.37497529 </v>
    <v>       0.50201169       0.49447410       0.87590440 </v>
    <v>       0.25036339       0.25039953       0.37526141 </v>
    <v>       0.24956873       0.25060602       0.87544121 </v>
    <v>       0.25058158       0.74562669       0.37531883 </v>
    <v>       0.24876252       0.75302298       0.87539144 </v>
    <v>       0.74476037       0.21640728       0.36107760 </v>
    <v>       0.75023212       0.25563582       0.87704639 </v>
    <v>       0.74946807       0.74942992       0.37516061 </v>
    <v>       0.74927926       0.74991715       0.87611396 </v>
    <v>       0.25036339       0.25039953       0.12473859 </v>
    <v>       0.24956873       0.25060602       0.62455879 </v>
    <v>       0.25058158       0.74562669       0.12468117 </v>
    <v>       0.24876252       0.75302298       0.62460856 </v>
    <v>       0.74476037       0.21640728       0.13892240 </v>
    <v>       0.75023212       0.25563582       0.62295361 </v>
    <v>       0.74946807       0.74942992       0.12483939 </v>
    <v>       0.74927926       0.74991715       0.62388604 </v>
    <v>       0.10694647       0.14386771       0.25000000 </v>
    <v>       0.36785779       0.11487025       0.25000000 </v>
    <v>       0.14430614       0.39428132       0.25000000 </v>
    <v>       0.39254700       0.35997377       0.25000000 </v>
    <v>       0.63851636       0.39471640       0.25000000 </v>
    <v>       0.90024169       0.35542989       0.25000000 </v>
    <v>       0.10696039       0.64438719       0.25000000 </v>
    <v>       0.35541956       0.60575475       0.25000000 </v>
    <v>       0.60700880       0.64562603       0.25000000 </v>
    <v>       0.85953718       0.61102267       0.25000000 </v>
    <v>       0.14962323       0.89122192       0.25000000 </v>
    <v>       0.39304097       0.85075385       0.25000000 </v>
    <v>       0.64671116       0.90290450       0.25000000 </v>
    <v>       0.88846915       0.86641804       0.25000000 </v>
    <v>       0.14054130       0.10991274       0.49871528 </v>
    <v>       0.38990952       0.14057145       0.50034984 </v>
    <v>       0.64064713       0.10952552       0.50451712 </v>
    <v>       0.88967574       0.14079903       0.50122195 </v>
    <v>       0.10998790       0.36003943       0.49994233 </v>
    <v>       0.36078222       0.38939529       0.49893163 </v>
    <v>       0.61160620       0.35811129       0.49220352 </v>
    <v>       0.85866890       0.38670075       0.48955662 </v>
    <v>       0.13932231       0.60983567       0.50193136 </v>
    <v>       0.38999296       0.63970294       0.50256414 </v>
    <v>       0.63948462       0.60954480       0.50050010 </v>
    <v>       0.88903848       0.63827401       0.49941417 </v>
    <v>       0.10986100       0.86107609       0.49615037 </v>
    <v>       0.36073876       0.89029002       0.49625519 </v>
    <v>       0.61035502       0.86077069       0.49851498 </v>
    <v>       0.86131590       0.88867265       0.50107905 </v>
    <v>       0.11066386       0.14021548       0.75000000 </v>
    <v>       0.35998865       0.11058818       0.75000000 </v>
    <v>       0.61129792       0.14021214       0.75000000 </v>
    <v>       0.86026983       0.11227960       0.75000000 </v>
    <v>       0.13965601       0.39009594       0.75000000 </v>
    <v>       0.38967731       0.35958635       0.75000000 </v>
    <v>       0.64054066       0.38902664       0.75000000 </v>
    <v>       0.88989452       0.35903146       0.75000000 </v>
    <v>       0.11015678       0.63911580       0.75000000 </v>
    <v>       0.35990420       0.60968986       0.75000000 </v>
    <v>       0.60838261       0.63686780       0.75000000 </v>
    <v>       0.86182929       0.60863547       0.75000000 </v>
    <v>       0.14020092       0.89003450       0.75000000 </v>
    <v>       0.38881406       0.85948641       0.75000000 </v>
    <v>       0.63690990       0.89037024       0.75000000 </v>
    <v>       0.89050757       0.86297837       0.75000000 </v>
    <v>       0.14054130       0.10991274       0.00128472 </v>
    <v>       0.38990952       0.14057145       0.99965016 </v>
    <v>       0.64064713       0.10952552       0.99548288 </v>
    <v>       0.88967574       0.14079903       0.99877805 </v>
    <v>       0.10998790       0.36003943       0.00005767 </v>
    <v>       0.36078222       0.38939529       0.00106837 </v>
    <v>       0.61160620       0.35811129       0.00779648 </v>
    <v>       0.85866890       0.38670075       0.01044338 </v>
    <v>       0.13932231       0.60983567       0.99806864 </v>
    <v>       0.38999296       0.63970294       0.99743586 </v>
    <v>       0.63948462       0.60954480       0.99949990 </v>
    <v>       0.88903848       0.63827401       0.00058583 </v>
    <v>       0.10986100       0.86107609       0.00384963 </v>
    <v>       0.36073876       0.89029002       0.00374481 </v>
    <v>       0.61035502       0.86077069       0.00148502 </v>
    <v>       0.86131590       0.88867265       0.99892095 </v>
   </varray>
  </structure>
  <varray name="forces" >
   <v>      -0.00037486       0.00191039      -0.00171875 </v>
   <v>      -0.00027228      -0.00130075      -0.00631868 </v>
   <v>       0.00035544      -0.00036779       0.00308867 </v>
   <v>       0.00541467      -0.00206887      -0.00081106 </v>
   <v>      -0.00211907       0.00445343       0.00393882 </v>
   <v>      -0.00120123      -0.00498975      -0.00241286 </v>
   <v>       0.00429300      -0.00615179      -0.00173262 </v>
   <v>      -0.00082866       0.00032188       0.00258308 </v>
   <v>      -0.00037486       0.00191039       0.00171875 </v>
   <v>      -0.00027228      -0.00130075       0.00631868 </v>
   <v>       0.00035544      -0.00036779      -0.00308867 </v>
   <v>       0.00541467      -0.00206887       0.00081106 </v>
   <v>      -0.00211907       0.00445343      -0.00393882 </v>
   <v>      -0.00120123      -0.00498975       0.00241286 </v>
   <v>       0.00429300      -0.00615179       0.00173262 </v>
   <v>      -0.00082866       0.00032188      -0.00258308 </v>
   <v>       0.00164018      -0.00188910      -0.00154538 </v>
   <v>       0.00075906       0.00057394      -0.00101641 </v>
   <v>      -0.00287165       0.00057497       0.00246335 </v>
   <v>      -0.00237080       0.00288424       0.00246335 </v>
   <v>      -0.00333878       0.01094491       0.00013640 </v>
   <v>       0.00377015      -0.00475205      -0.00284310 </v>
   <v>      -0.00058423       0.00190280       0.00740629 </v>
   <v>      -0.00013438      -0.00308103       0.00105660 </v>
   <v>       0.00164018      -0.00188910       0.00154538 </v>
   <v>       0.00075906       0.00057394       0.00101641 </v>
   <v>      -0.00287165       0.00057497      -0.00246335 </v>
   <v>      -0.00237080       0.00288424      -0.00246335 </v>
   <v>      -0.00333878       0.01094491      -0.00013640 </v>
   <v>       0.00377015      -0.00475205       0.00284310 </v>
   <v>      -0.00058423       0.00190280      -0.00740629 </v>
   <v>      -0.00013438      -0.00308103      -0.00105660 </v>
   <v>       0.00922084      -0.00513642      -0.00679879 </v>
   <v>       0.00922084      -0.00513642       0.00679879 </v>
   <v>       0.00445678      -0.01367513       0.00244174 </v>
   <v>       0.00445678      -0.01367513      -0.00244174 </v>
   <v>      -0.00637349       0.00271514      -0.00961036 </v>
   <v>      -0.00637349       0.00271514       0.00961036 </v>
   <v>      -0.00701193       0.03355109      -0.00817905 </v>
   <v>      -0.00701193       0.03355109       0.00817905 </v>
   <v>       0.00153471      -0.01480723      -0.01510117 </v>
   <v>       0.00153471      -0.01480723       0.01510117 </v>
   <v>       0.00034568      -0.00370066      -0.00187175 </v>
   <v>       0.00034568      -0.00370066       0.00187175 </v>
   <v>       0.00760427       0.00104526       0.00883631 </v>
   <v>       0.00760427       0.00104526      -0.00883631 </v>
   <v>      -0.01410659      -0.00718371       0.00570497 </v>
   <v>      -0.01410659      -0.00718371      -0.00570497 </v>
   <v>       0.01706815       0.01684588       0.00000000 </v>
   <v>       0.00972228      -0.00150322       0.00000000 </v>
   <v>      -0.00587551      -0.00229849       0.00000000 </v>
   <v>       0.01941154      -0.02759234       0.00000000 </v>
   <v>      -0.00318166       0.01506170       0.00000000 </v>
   <v>      -0.00972422      -0.01350233       0.00000000 </v>
   <v>      -0.00016223       0.01497003       0.00000000 </v>
   <v>      -0.02254041      -0.01247649       0.00000000 </v>
   <v>       0.01054669      -0.00016834       0.00000000 </v>
   <v>      -0.02863720      -0.02817349       0.00000000 </v>
   <v>       0.01359711       0.00141392       0.00000000 </v>
   <v>      -0.03306144       0.00204474       0.00000000 </v>
   <v>       0.00340392      -0.01095900       0.00000000 </v>
   <v>       0.00350762      -0.01910484       0.00000000 </v>
   <v>       0.00766468       0.01227982       0.00000000 </v>
   <v>      -0.00423254      -0.00721509       0.00000000 </v>
   <v>      -0.00776604       0.00334770       0.00334888 </v>
   <v>       0.00001089       0.00094814       0.00332596 </v>
   <v>       0.00568023       0.00864648      -0.00917317 </v>
   <v>       0.00004605      -0.00466468      -0.00186350 </v>
   <v>      -0.00196733       0.00378622       0.00392511 </v>
   <v>       0.00517487       0.00352352      -0.00748603 </v>
   <v>      -0.00399098       0.00161127      -0.01229483 </v>
   <v>       0.00029941       0.00134755      -0.00793426 </v>
   <v>      -0.00776604       0.00334770      -0.00334888 </v>
   <v>       0.00001089       0.00094814      -0.00332596 </v>
   <v>       0.00568023       0.00864648       0.00917317 </v>
   <v>       0.00004605      -0.00466468       0.00186350 </v>
   <v>      -0.00196733       0.00378622      -0.00392511 </v>
   <v>       0.00517487       0.00352352       0.00748603 </v>
   <v>      -0.00399098       0.00161127       0.01229483 </v>
   <v>       0.00029941       0.00134755       0.00793426 </v>
   <v>       0.00070652      -0.00491815      -0.00959847 </v>
   <v>       0.00054466      -0.00151864       0.01309522 </v>
   <v>       0.00650584      -0.00393521      -0.00800078 </v>
   <v>      -0.00019482       0.00384301       0.00747061 </v>
   <v>      -0.00241120      -0.00389045      -0.00154899 </v>
   <v>       0.00181513      -0.00079776      -0.00240302 </v>
   <v>       0.00015353      -0.00085204       0.00498909 </v>
   <v>       0.00340357      -0.00194926      -0.00621069 </v>
   <v>       0.00070652      -0.00491815       0.00959847 </v>
   <v>       0.00054466      -0.00151864      -0.01309522 </v>
   <v>       0.00650584      -0.00393521       0.00800078 </v>
   <v>      -0.00019482       0.00384301      -0.00747061 </v>
   <v>      -0.00241120      -0.00389045       0.00154899 </v>
   <v>       0.00181513      -0.00079776       0.00240302 </v>
   <v>       0.00015353      -0.00085204      -0.00498909 </v>
   <v>       0.00340357      -0.00194926       0.00621069 </v>
   <v>       0.00299980      -0.00094172       0.00000000 </v>
   <v>       0.00019357       0.00319326       0.00000000 </v>
   <v>       0.01269877      -0.01284443       0.00000000 </v>
   <v>      -0.01301099      -0.01091977       0.00000000 </v>
   <v>       0.00054078      -0.00346073       0.00000000 </v>
   <v>       0.00084394      -0.00977912       0.00000000 </v>
   <v>       0.00285517       0.01879741       0.00000000 </v>
   <v>      -0.01520619       0.00579800       0.00000000 </v>
   <v>       0.00453107       0.01220964       0.00000000 </v>
   <v>       0.00229274      -0.00103229       0.00000000 </v>
   <v>      -0.00551422       0.01746188       0.00000000 </v>
   <v>       0.00052372      -0.00150640       0.00000000 </v>
   <v>       0.01153046       0.01038738       0.00000000 </v>
   <v>       0.00450407       0.00395301       0.00000000 </v>
   <v>      -0.00432578       0.00478716       0.00053893 </v>
   <v>      -0.00513191       0.00404902      -0.00337429 </v>
   <v>      -0.00033055       0.00272983      -0.00103013 </v>
   <v>      -0.00481526      -0.00355649      -0.00307025 </v>
   <v>       0.00403026       0.00006931      -0.00151981 </v>
   <v>       0.00655596      -0.00726951       0.00239791 </v>
   <v>       0.00060306       0.00415926       0.00285270 </v>
   <v>      -0.00011897       0.00238580       0.01169162 </v>
   <v>       0.00187403      -0.00082635       0.00601818 </v>
   <v>       0.00076108      -0.00298406       0.00796095 </v>
   <v>      -0.00443472      -0.00103585       0.00642060 </v>
   <v>      -0.00501490       0.00305107       0.00199290 </v>
   <v>      -0.00306677       0.01339684       0.00101544 </v>
   <v>       0.00298028       0.00154088       0.00277258 </v>
   <v>       0.00941792       0.00093588       0.00593588 </v>
   <v>      -0.00541287      -0.00027412      -0.00119487 </v>
   <v>      -0.00644653      -0.01107774       0.00000000 </v>
   <v>       0.00809638      -0.00030434       0.00000000 </v>
   <v>       0.00726568       0.00647955       0.00000000 </v>
   <v>      -0.00371433       0.00024127       0.00000000 </v>
   <v>      -0.00133905       0.00555071       0.00000000 </v>
   <v>       0.00220708      -0.00205042       0.00000000 </v>
   <v>       0.01246329      -0.01203100       0.00000000 </v>
   <v>      -0.01064581      -0.01160880       0.00000000 </v>
   <v>      -0.00270904      -0.01157519       0.00000000 </v>
   <v>       0.00439007       0.00407503       0.00000000 </v>
   <v>       0.00817442      -0.00207834       0.00000000 </v>
   <v>       0.00620307       0.00555594       0.00000000 </v>
   <v>      -0.01476598       0.00746190       0.00000000 </v>
   <v>      -0.00221345       0.00596123       0.00000000 </v>
   <v>       0.00654691      -0.00123692       0.00000000 </v>
   <v>       0.00042183       0.01077831       0.00000000 </v>
   <v>      -0.00432578       0.00478716      -0.00053893 </v>
   <v>      -0.00513191       0.00404902       0.00337429 </v>
   <v>      -0.00033055       0.00272983       0.00103013 </v>
   <v>      -0.00481526      -0.00355649       0.00307025 </v>
   <v>       0.00403026       0.00006931       0.00151981 </v>
   <v>       0.00655596      -0.00726951      -0.00239791 </v>
   <v>       0.00060306       0.00415926      -0.00285270 </v>
   <v>      -0.00011897       0.00238580      -0.01169162 </v>
   <v>       0.00187403      -0.00082635      -0.00601818 </v>
   <v>       0.00076108      -0.00298406      -0.00796095 </v>
   <v>      -0.00443472      -0.00103585      -0.00642060 </v>
   <v>      -0.00501490       0.00305107      -0.00199290 </v>
   <v>      -0.00306677       0.01339684      -0.00101544 </v>
   <v>       0.00298028       0.00154088      -0.00277258 </v>
   <v>       0.00941792       0.00093588      -0.00593588 </v>
   <v>      -0.00541287      -0.00027412       0.00119487 </v>
  </varray>
  <varray name="stress" >
   <v>       0.09258742       0.00404866       0.00000000 </v>
   <v>       0.00404903       0.24065077       0.00000000 </v>
   <v>       0.00000000       0.00000000      -0.01220606 </v>
  </varray>
  <energy>
   <i name="e_fr_energy">  -1153.43034748 </i>
   <i name="e_wo_entrp">  -1153.43034748 </i>
   <i name="e_0_energy">     -0.00000000 </i>
  </energy>
  <time name="totalsc">  521.21  524.72</time>
 </calculation>
 <calculation>
  <scstep>
   <time name="dav">  141.88  142.01</time>
   <time name="total">  144.21  144.39</time>
   <energy>
    <i name="alphaZ">   5635.64338895 </i>
    <i name="ewald"> -61203.88173281 </i>
    <i name="hartreedc"> -15295.04488661 </i>
    <i name="XCdc">   2852.57482894 </i>
    <i name="pawpsdc"> 112039.54393494 </i>
    <i name="pawaedc">-110788.08092851 </i>
    <i name="eentropy">     -0.00000000 </i>
    <i name="bandstr">  -7044.26867321 </i>
    <i name="atom">  72650.08363186 </i>
    <i name="e_fr_energy">  -1153.43043646 </i>
    <i name="e_wo_entrp">  -1153.43043646 </i>
    <i name="e_0_energy">  -1153.43043646 </i>
   </energy>
  </scstep>
  <scstep>
   <time name="diag">   16.60   16.60</time>
   <time name="diis">   25.78   25.80</time>
   <time name="orth">    9.43    9.43</time>
   <time name="total">   54.14   54.17</time>
   <energy>
    <i name="e_fr_energy">  -1153.43058197 </i>
    <i name="e_wo_entrp">  -1153.43058197 </i>
    <i name="e_0_energy">  -1153.43058197 </i>
   </energy>
  </scstep>
  <scstep>
   <time name="diag">   16.59   16.61</time>
   <time name="diis">   18.05   18.04</time>
   <time name="orth">    9.42    9.42</time>
   <time name="total">   46.38   46.46</time>
   <energy>
    <i name="e_fr_energy">  -1153.43051913 </i>
    <i name="e_wo_entrp">  -1153.43051913 </i>
    <i name="e_0_energy">  -1153.43051913 </i>
   </energy>
  </scstep>
  <scstep>
   <time name="diag">   16.56   16.57</time>
   <time name="diis">   16.35   16.35</time>
   <time name="orth">    9.43    9.43</time>
   <time name="total">   44.69   44.75</time>
   <energy>
    <i name="e_fr_energy">  -1153.43045693 </i>
    <i name="e_wo_entrp">  -1153.43045693 </i>
    <i name="e_0_energy">  -1153.43045693 </i>
   </energy>
  </scstep>
  <scstep>
   <time name="diag">   16.60   16.61</time>
   <time name="diis">   15.63   15.64</time>
   <time name="orth">    9.43    9.44</time>
   <time name="total">   43.99   44.09</time>
   <energy>
    <i name="e_fr_energy">  -1153.43044632 </i>
    <i name="e_wo_entrp">  -1153.43044632 </i>
    <i name="e_0_energy">  -1153.43044632 </i>
   </energy>
  </scstep>
  <scstep>
   <time name="diag">   16.59   16.59</time>
   <time name="diis">   15.36   15.37</time>
   <time name="orth">    9.42    9.42</time>
   <time name="total">   43.71   43.73</time>
   <energy>
    <i name="e_fr_energy">  -1153.43044361 </i>
    <i name="e_wo_entrp">  -1153.43044361 </i>
    <i name="e_0_energy">  -1153.43044361 </i>
   </energy>
  </scstep>
  <scstep>
   <time name="diag">   16.63   16.64</time>
   <time name="diis">   14.76   14.77</time>
   <time name="orth">    9.43    9.44</time>
   <time name="total">   43.17   43.26</time>
   <energy>
    <i name="e_fr_energy">  -1153.43044295 </i>
    <i name="e_wo_entrp">  -1153.43044295 </i>
    <i name="e_0_energy">  -1153.43044295 </i>
   </energy>
  </scstep>
  <scstep>
   <time name="diag">   16.61   16.61</time>
   <time name="diis">   14.14   14.17</time>
   <time name="orth">    9.42    9.42</time>
   <time name="total">   40.74   40.81</time>
   <energy>
    <i name="alphaZ">   5635.64338895 </i>
    <i name="ewald"> -61203.88173281 </i>
    <i name="hartreedc"> -15296.76084058 </i>
    <i name="XCdc">   2852.69018610 </i>
    <i name="pawpsdc"> 112013.28830408 </i>
    <i name="pawaedc">-110761.81671452 </i>
    <i name="eentropy">     -0.00000000 </i>
    <i name="bandstr">  -7042.67666536 </i>
    <i name="atom">  72650.08363186 </i>
    <i name="e_fr_energy">  -1153.43044227 </i>
    <i name="e_wo_entrp">  -1153.43044227 </i>
    <i name="e_0_energy">  -1153.43044227 </i>
   </energy>
  </scstep>
  <structure>
   <crystal>
    <varray name="basis" >
     <v>      11.21598744      -0.00204726       0.00000000 </v>
     <v>      -0.00203829      11.21953870       0.00000000 </v>
     <v>       0.00000000       0.00000000      15.92866411 </v>
    </varray>
    <i name="volume">   2004.43443475 </i>
    <varray name="rec_basis" >
     <v>       0.08915845       0.00001620       0.00000000 </v>
     <v>       0.00001627       0.08913023       0.00000000 </v>
     <v>       0.00000000       0.00000000       0.06277990 </v>
    </varray>
   </crystal>
   <varray name="positions" >
    <v>       0.00342777       0.25019412       0.12221638 </v>
    <v>       0.00053695       0.24884528       0.62654030 </v>
    <v>       0.99764621       0.75004017       0.12497249 </v>
    <v>       0.99788420       0.75131830       0.62576738 </v>
    <v>       0.49379014       0.25047509       0.12267243 </v>
    <v>       0.50061768       0.24929831       0.62537796 </v>
    <v>       0.49935569       0.74845013       0.12262518 </v>
    <v>       0.50232836       0.75087975       0.62702592 </v>
    <v>       0.00342777       0.25019412       0.37778362 </v>
    <v>       0.00053695       0.24884528       0.87345970 </v>
    <v>       0.99764621       0.75004017       0.37502751 </v>
    <v>       0.99788420       0.75131830       0.87423262 </v>
    <v>       0.49379014       0.25047509       0.37732757 </v>
    <v>       0.50061768       0.24929831       0.87462204 </v>
    <v>       0.49935569       0.74845013       0.37737482 </v>
    <v>       0.50232836       0.75087975       0.87297408 </v>
    <v>       0.25221100       0.00213812       0.12454672 </v>
    <v>       0.25051805       0.00026375       0.62534361 </v>
    <v>       0.24919975       0.49959589       0.12383184 </v>
    <v>       0.25001553       0.49968239       0.62581639 </v>
    <v>       0.74786040       0.99079937       0.11780064 </v>
    <v>       0.75064300       0.99691312       0.62777860 </v>
    <v>       0.74807757       0.51072161       0.12383461 </v>
    <v>       0.75044578       0.50148990       0.62634364 </v>
    <v>       0.25221100       0.00213812       0.37545328 </v>
    <v>       0.25051805       0.00026375       0.87465639 </v>
    <v>       0.24919975       0.49959589       0.37616816 </v>
    <v>       0.25001553       0.49968239       0.87418361 </v>
    <v>       0.74786040       0.99079937       0.38219936 </v>
    <v>       0.75064300       0.99691312       0.87222140 </v>
    <v>       0.74807757       0.51072161       0.37616539 </v>
    <v>       0.75044578       0.50148990       0.87365636 </v>
    <v>       0.99992537       0.00061288       0.00168871 </v>
    <v>       0.99992537       0.00061288       0.49831129 </v>
    <v>       0.99972472       0.49967132       0.00044550 </v>
    <v>       0.99972472       0.49967132       0.49955450 </v>
    <v>       0.50017783       0.00055065       0.00092594 </v>
    <v>       0.50017783       0.00055065       0.49907406 </v>
    <v>       0.49991035       0.50004829       0.99995680 </v>
    <v>       0.49991035       0.50004829       0.50004320 </v>
    <v>       0.24981491       0.24996879       0.99937748 </v>
    <v>       0.24981491       0.24996879       0.50062252 </v>
    <v>       0.24968998       0.74983330       0.00010466 </v>
    <v>       0.24968998       0.74983330       0.49989534 </v>
    <v>       0.74979548       0.24777348       0.00086008 </v>
    <v>       0.74979548       0.24777348       0.49913992 </v>
    <v>       0.74983269       0.74947958       0.99716698 </v>
    <v>       0.74983269       0.74947958       0.50283302 </v>
    <v>       0.24940386       0.24950221       0.25000000 </v>
    <v>       0.25018819       0.25017454       0.75000000 </v>
    <v>       0.25024794       0.74666144       0.25000000 </v>
    <v>       0.24975225       0.75050895       0.75000000 </v>
    <v>       0.75018833       0.25106679       0.75000000 </v>
    <v>       0.74931176       0.75629071       0.25000000 </v>
    <v>       0.99973148       0.99849079       0.75000000 </v>
    <v>       0.00217441       0.50234783       0.25000000 </v>
    <v>       0.99779078       0.50079421       0.75000000 </v>
    <v>       0.50065851       0.99846393       0.75000000 </v>
    <v>       0.49703700       0.50287979       0.25000000 </v>
    <v>       0.50130427       0.50034741       0.75000000 </v>
    <v>       0.01488064       0.99049579       0.25000000 </v>
    <v>       0.49125901       0.98609432       0.25000000 </v>
    <v>       0.75410669       0.27585555       0.25000000 </v>
    <v>       0.74982262       0.74941840       0.75000000 </v>
    <v>       0.99082182       0.00891629       0.12729803 </v>
    <v>       0.00152288       0.00053018       0.62413675 </v>
    <v>       0.00332733       0.50342139       0.12543697 </v>
    <v>       0.99566410       0.49582363       0.62373167 </v>
    <v>       0.50679546       0.01050517       0.12651730 </v>
    <v>       0.49733365       0.99866531       0.62453769 </v>
    <v>       0.49821090       0.50484373       0.12498747 </v>
    <v>       0.50201298       0.49447990       0.62407157 </v>
    <v>       0.99082182       0.00891629       0.37270197 </v>
    <v>       0.00152288       0.00053018       0.87586325 </v>
    <v>       0.00332733       0.50342139       0.37456303 </v>
    <v>       0.99566410       0.49582363       0.87626833 </v>
    <v>       0.50679546       0.01050517       0.37348270 </v>
    <v>       0.49733365       0.99866531       0.87546231 </v>
    <v>       0.49821090       0.50484373       0.37501253 </v>
    <v>       0.50201298       0.49447990       0.87592843 </v>
    <v>       0.25036642       0.25037838       0.37523233 </v>
    <v>       0.24957107       0.25059949       0.87548087 </v>
    <v>       0.25060956       0.74560977       0.37529460 </v>
    <v>       0.24876169       0.75303951       0.87541407 </v>
    <v>       0.74474999       0.21639055       0.36107291 </v>
    <v>       0.75023993       0.25563240       0.87703911 </v>
    <v>       0.74946873       0.74942625       0.37517572 </v>
    <v>       0.74929390       0.74990877       0.87609515 </v>
    <v>       0.25036642       0.25037838       0.12476767 </v>
    <v>       0.24957107       0.25059949       0.62451913 </v>
    <v>       0.25060956       0.74560977       0.12470540 </v>
    <v>       0.24876169       0.75303951       0.62458593 </v>
    <v>       0.74474999       0.21639055       0.13892709 </v>
    <v>       0.75023993       0.25563240       0.62296089 </v>
    <v>       0.74946873       0.74942625       0.12482428 </v>
    <v>       0.74929390       0.74990877       0.62390485 </v>
    <v>       0.10695937       0.14386366       0.25000000 </v>
    <v>       0.36785863       0.11488398       0.25000000 </v>
    <v>       0.14436076       0.39422609       0.25000000 </v>
    <v>       0.39249102       0.35992680       0.25000000 </v>
    <v>       0.63851869       0.39470152       0.25000000 </v>
    <v>       0.90024531       0.35538784       0.25000000 </v>
    <v>       0.10697269       0.64446803       0.25000000 </v>
    <v>       0.35535415       0.60577967       0.25000000 </v>
    <v>       0.60702830       0.64567854       0.25000000 </v>
    <v>       0.85954704       0.61101824       0.25000000 </v>
    <v>       0.14959952       0.89129701       0.25000000 </v>
    <v>       0.39304322       0.85074737       0.25000000 </v>
    <v>       0.64676076       0.90294918       0.25000000 </v>
    <v>       0.88848852       0.86643504       0.25000000 </v>
    <v>       0.14052270       0.10993332       0.49871691 </v>
    <v>       0.38988745       0.14058886       0.50033962 </v>
    <v>       0.64064572       0.10953726       0.50451400 </v>
    <v>       0.88965502       0.14078373       0.50121265 </v>
    <v>       0.11000524       0.36003973       0.49993773 </v>
    <v>       0.36081041       0.38936404       0.49893889 </v>
    <v>       0.61160880       0.35812918       0.49221216 </v>
    <v>       0.85866839       0.38671101       0.48959203 </v>
    <v>       0.13933037       0.60983212       0.50194958 </v>
    <v>       0.38999623       0.63969011       0.50258825 </v>
    <v>       0.63946554       0.60954034       0.50051955 </v>
    <v>       0.88901691       0.63828713       0.49942020 </v>
    <v>       0.10984782       0.86113370       0.49615345 </v>
    <v>       0.36075159       0.89029665       0.49626359 </v>
    <v>       0.61039553       0.86077472       0.49853296 </v>
    <v>       0.86129262       0.88867147       0.50107543 </v>
    <v>       0.11063612       0.14016784       0.75000000 </v>
    <v>       0.36002348       0.11058688       0.75000000 </v>
    <v>       0.61132917       0.14024001       0.75000000 </v>
    <v>       0.86025386       0.11228064       0.75000000 </v>
    <v>       0.13965025       0.39011981       0.75000000 </v>
    <v>       0.38968680       0.35957754       0.75000000 </v>
    <v>       0.64059426       0.38897491       0.75000000 </v>
    <v>       0.88984872       0.35898153       0.75000000 </v>
    <v>       0.11014512       0.63906602       0.75000000 </v>
    <v>       0.35992309       0.60970739       0.75000000 </v>
    <v>       0.60841777       0.63685887       0.75000000 </v>
    <v>       0.86185598       0.60865937       0.75000000 </v>
    <v>       0.14013741       0.89006658       0.75000000 </v>
    <v>       0.38880454       0.85951205       0.75000000 </v>
    <v>       0.63693806       0.89036492       0.75000000 </v>
    <v>       0.89050939       0.86302472       0.75000000 </v>
    <v>       0.14052270       0.10993332       0.00128309 </v>
    <v>       0.38988745       0.14058886       0.99966038 </v>
    <v>       0.64064572       0.10953726       0.99548600 </v>
    <v>       0.88965502       0.14078373       0.99878735 </v>
    <v>       0.11000524       0.36003973       0.00006227 </v>
    <v>       0.36081041       0.38936404       0.00106111 </v>
    <v>       0.61160880       0.35812918       0.00778784 </v>
    <v>       0.85866839       0.38671101       0.01040797 </v>
    <v>       0.13933037       0.60983212       0.99805042 </v>
    <v>       0.38999623       0.63969011       0.99741175 </v>
    <v>       0.63946554       0.60954034       0.99948045 </v>
    <v>       0.88901691       0.63828713       0.00057980 </v>
    <v>       0.10984782       0.86113370       0.00384655 </v>
    <v>       0.36075159       0.89029665       0.00373641 </v>
    <v>       0.61039553       0.86077472       0.00146704 </v>
    <v>       0.86129262       0.88867147       0.99892457 </v>
   </varray>
  </structure>
  <varray name="forces" >
   <v>       0.00683349      -0.00757497       0.00146225 </v>
   <v>      -0.00664553      -0.00247480      -0.00398906 </v>
   <v>      -0.00204178       0.00341284       0.00162087 </v>
   <v>      -0.00220656       0.00120668       0.00067778 </v>
   <v>      -0.00405478       0.00365785      -0.00074311 </v>
   <v>       0.01024206      -0.00405141      -0.00420053 </v>
   <v>       0.00161058       0.00372004      -0.00119398 </v>
   <v>       0.00855399       0.00256413      -0.00077784 </v>
   <v>       0.00683349      -0.00757497      -0.00146225 </v>
   <v>      -0.00664553      -0.00247480       0.00398906 </v>
   <v>      -0.00204178       0.00341284      -0.00162087 </v>
   <v>      -0.00220656       0.00120668      -0.00067778 </v>
   <v>      -0.00405478       0.00365785       0.00074311 </v>
   <v>       0.01024206      -0.00405141       0.00420053 </v>
   <v>       0.00161058       0.00372004       0.00119398 </v>
   <v>       0.00855399       0.00256413       0.00077784 </v>
   <v>       0.00090297       0.00375338       0.00589706 </v>
   <v>      -0.00607809      -0.00140204      -0.00100751 </v>
   <v>      -0.00171783      -0.00392862       0.00280737 </v>
   <v>      -0.00711909      -0.00243547      -0.00731211 </v>
   <v>       0.00098224       0.00632641      -0.00174260 </v>
   <v>       0.00509289      -0.00182810       0.00082507 </v>
   <v>      -0.00137491       0.00192884      -0.00422683 </v>
   <v>       0.00099700      -0.00502460       0.00245176 </v>
   <v>       0.00090297       0.00375338      -0.00589706 </v>
   <v>      -0.00607809      -0.00140204       0.00100751 </v>
   <v>      -0.00171783      -0.00392862      -0.00280737 </v>
   <v>      -0.00711909      -0.00243547       0.00731211 </v>
   <v>       0.00098224       0.00632641       0.00174260 </v>
   <v>       0.00509289      -0.00182810      -0.00082507 </v>
   <v>      -0.00137491       0.00192884       0.00422683 </v>
   <v>       0.00099700      -0.00502460      -0.00245176 </v>
   <v>      -0.01060954      -0.00058551       0.00113131 </v>
   <v>      -0.01060954      -0.00058551      -0.00113131 </v>
   <v>      -0.01972060       0.01110243      -0.00360968 </v>
   <v>      -0.01972060       0.01110243       0.00360968 </v>
   <v>       0.01646031      -0.00002947       0.00494665 </v>
   <v>       0.01646031      -0.00002947      -0.00494665 </v>
   <v>       0.00433824      -0.05731354       0.00294588 </v>
   <v>       0.00433824      -0.05731354      -0.00294588 </v>
   <v>       0.00423359       0.01239078       0.02317193 </v>
   <v>       0.00423359       0.01239078      -0.02317193 </v>
   <v>      -0.00794700       0.00151767       0.01179003 </v>
   <v>      -0.00794700       0.00151767      -0.01179003 </v>
   <v>      -0.01705767      -0.00907305      -0.01178293 </v>
   <v>      -0.01705767      -0.00907305       0.01178293 </v>
   <v>       0.01533814       0.02008635      -0.01088240 </v>
   <v>       0.01533814       0.02008635       0.01088240 </v>
   <v>       0.00378395      -0.01141919      -0.00000000 </v>
   <v>      -0.00787003      -0.00907538      -0.00000000 </v>
   <v>      -0.00915064       0.00708137      -0.00000000 </v>
   <v>      -0.03432908       0.02486674      -0.00000000 </v>
   <v>      -0.01067766      -0.03577989      -0.00000000 </v>
   <v>       0.00341470       0.02232887      -0.00000000 </v>
   <v>      -0.02672718      -0.00097044      -0.00000000 </v>
   <v>       0.01098521      -0.00653473      -0.00000000 </v>
   <v>      -0.01456506      -0.00739207      -0.00000000 </v>
   <v>       0.03253938       0.02733256      -0.00000000 </v>
   <v>      -0.01105019      -0.00041221      -0.00000000 </v>
   <v>       0.03312194       0.01117702      -0.00000000 </v>
   <v>      -0.00116437       0.01123098      -0.00000000 </v>
[...]
       <r>   -15.7667     0.0000    32.0000 </r>
       <r>   -15.6150     0.0000    32.0000 </r>
       <r>   -15.4633     0.0000    32.0000 </r>
       <r>   -15.3115     0.0000    32.0000 </r>
       <r>   -15.1598     0.3621    32.0549 </r>
       <r>   -15.0081    22.3025    35.4390 </r>
       <r>   -14.8563    57.1153    44.1054 </r>
       <r>   -14.7046    47.9400    51.3795 </r>
       <r>   -14.5529    28.5576    55.7127 </r>
       <r>   -14.4011    31.6960    60.5221 </r>
       <r>   -14.2494    34.3668    65.7367 </r>
       <r>   -14.0977   110.1896    82.4562 </r>
       <r>   -13.9459   148.4964   104.9883 </r>
       <r>   -13.7942   111.6002   121.9218 </r>
       <r>   -13.6425    24.4162   125.6266 </r>
       <r>   -13.4907     2.4606   126.0000 </r>
       <r>   -13.3390     0.0000   126.0000 </r>
       <r>   -13.1873     0.0000   126.0000 </r>
       <r>   -13.0355     0.0000   126.0000 </r>
       <r>   -12.8838     0.0000   126.0000 </r>
       <r>   -12.7321     0.0106   126.0016 </r>
       <r>   -12.5803    17.4211   128.6450 </r>
       <r>   -12.4286   109.5290   145.2643 </r>
       <r>   -12.2769   180.1980   172.6066 </r>
       <r>   -12.1251   142.0745   194.1642 </r>
       <r>   -11.9734   126.9866   213.4324 </r>
       <r>   -11.8216    51.6176   221.2646 </r>
       <r>   -11.6699     4.8467   222.0000 </r>
       <r>   -11.5182     0.0002   222.0000 </r>
       <r>   -11.3664     0.0000   222.0000 </r>
       <r>   -11.2147     0.0000   222.0000 </r>
       <r>   -11.0630     0.0000   222.0000 </r>
       <r>   -10.9112     0.0000   222.0000 </r>
       <r>   -10.7595     0.0000   222.0000 </r>
       <r>   -10.6078     0.0000   222.0000 </r>
       <r>   -10.4560     0.0000   222.0000 </r>
       <r>   -10.3043     0.0000   222.0000 </r>
       <r>   -10.1526     0.0000   222.0000 </r>
       <r>   -10.0008     0.0000   222.0000 </r>
       <r>    -9.8491     0.0000   222.0000 </r>
       <r>    -9.6974     0.0000   222.0000 </r>
       <r>    -9.5456     0.0000   222.0000 </r>
       <r>    -9.3939     0.0000   222.0000 </r>
       <r>    -9.2422     0.0000   222.0000 </r>
       <r>    -9.0904     0.0000   222.0000 </r>
       <r>    -8.9387     0.0000   222.0000 </r>
       <r>    -8.7870     0.0000   222.0000 </r>
       <r>    -8.6352     0.0000   222.0000 </r>
       <r>    -8.4835     0.0000   222.0000 </r>
       <r>    -8.3318     0.0000   222.0000 </r>
       <r>    -8.1800     0.0000   222.0000 </r>
       <r>    -8.0283     0.0000   222.0000 </r>
       <r>    -7.8766     0.0000   222.0000 </r>
       <r>    -7.7248     0.0000   222.0000 </r>
       <r>    -7.5731     0.0000   222.0000 </r>
       <r>    -7.4213     0.0000   222.0000 </r>
       <r>    -7.2696     0.0000   222.0000 </r>
       <r>    -7.1179     0.0000   222.0000 </r>
       <r>    -6.9661     0.0000   222.0000 </r>
       <r>    -6.8144     0.0000   222.0000 </r>
       <r>    -6.6627     0.0000   222.0000 </r>
       <r>    -6.5109     0.0000   222.0000 </r>
       <r>    -6.3592     0.0000   222.0000 </r>
       <r>    -6.2075     0.0000   222.0000 </r>
       <r>    -6.0557     0.0000   222.0000 </r>
       <r>    -5.9040     0.0000   222.0000 </r>
       <r>    -5.7523     0.0000   222.0000 </r>
       <r>    -5.6005     0.0000   222.0000 </r>
       <r>    -5.4488     0.0000   222.0000 </r>
       <r>    -5.2971     0.0000   222.0000 </r>
       <r>    -5.1453     0.0000   222.0000 </r>
       <r>    -4.9936     0.0000   222.0000 </r>
       <r>    -4.8419     0.0000   222.0000 </r>
       <r>    -4.6901     0.0000   222.0000 </r>
       <r>    -4.5384     0.0000   222.0000 </r>
       <r>    -4.3867     0.0000   222.0000 </r>
       <r>    -4.2349     0.0000   222.0000 </r>
       <r>    -4.0832     0.0000   222.0000 </r>
       <r>    -3.9315     0.0000   222.0000 </r>
       <r>    -3.7797     0.0000   222.0000 </r>
       <r>    -3.6280     0.0000   222.0000 </r>
       <r>    -3.4763     0.0000   222.0000 </r>
       <r>    -3.3245     0.0000   222.0000 </r>
       <r>    -3.1728     0.0000   222.0000 </r>
       <r>    -3.0210     0.0000   222.0000 </r>
       <r>    -2.8693     0.0000   222.0000 </r>
       <r>    -2.7176     0.0000   222.0000 </r>
       <r>    -2.5658     0.0000   222.0000 </r>
       <r>    -2.4141     0.0000   222.0000 </r>
       <r>    -2.2624     2.6270   222.3986 </r>
       <r>    -2.1106    16.5419   224.9086 </r>
       <r>    -1.9589    38.2836   230.7175 </r>
       <r>    -1.8072    44.0930   237.4080 </r>
       <r>    -1.6554    60.9469   246.6557 </r>
       <r>    -1.5037    57.4339   255.3704 </r>
       <r>    -1.3520    54.8769   263.6971 </r>
       <r>    -1.2002    74.1507   274.9483 </r>
       <r>    -1.0485    69.7368   285.5298 </r>
       <r>    -0.8968    75.5743   296.9970 </r>
       <r>    -0.7450    73.4231   308.1379 </r>
       <r>    -0.5933   108.5140   324.6032 </r>
       <r>    -0.4416   128.5572   344.1097 </r>
       <r>    -0.2898    73.3715   355.2427 </r>
       <r>    -0.1381    47.1410   362.3956 </r>
       <r>     0.0136    51.3474   370.1868 </r>
       <r>     0.1654    43.4980   376.7869 </r>
       <r>     0.3171    43.1785   383.3386 </r>
       <r>     0.4688    54.9703   391.6795 </r>
       <r>     0.6206    63.7606   401.3542 </r>
       <r>     0.7723    36.8495   406.9455 </r>
       <r>     0.9240    49.5403   414.4625 </r>
       <r>     1.0758    55.5395   422.8898 </r>
       <r>     1.2275    93.0686   437.0115 </r>
       <r>     1.3792    91.8392   450.9466 </r>
       <r>     1.5310   104.3101   466.7741 </r>
       <r>     1.6827    77.9657   478.6041 </r>
       <r>     1.8345    71.1147   489.3947 </r>
       <r>     1.9862    46.0973   496.3892 </r>
       <r>     2.1379    36.8577   501.9818 </r>
       <r>     2.2897    12.8557   503.9325 </r>
       <r>     2.4414     0.4449   504.0000 </r>
       <r>     2.5931     0.0000   504.0000 </r>
       <r>     2.7449     0.0000   504.0000 </r>
       <r>     2.8966     0.0000   504.0000 </r>
       <r>     3.0483     0.0000   504.0000 </r>
       <r>     3.2001     0.0000   504.0000 </r>
       <r>     3.3518     0.0000   504.0000 </r>
       <r>     3.5035     0.0000   504.0000 </r>
       <r>     3.6553     0.0000   504.0000 </r>
       <r>     3.8070     0.0000   504.0000 </r>
       <r>     3.9587     0.0000   504.0000 </r>
       <r>     4.1105     0.0000   504.0000 </r>
       <r>     4.2622     0.0000   504.0000 </r>
       <r>     4.4139     0.4650   504.0706 </r>
       <r>     4.5657    17.4825   506.7233 </r>
       <r>     4.7174    31.3480   511.4798 </r>
       <r>     4.8691    35.9486   516.9345 </r>
       <r>     5.0209    27.6382   521.1281 </r>
       <r>     5.1726    34.5137   526.3650 </r>
       <r>     5.3243    44.4442   533.1088 </r>
       <r>     5.4761    73.1390   544.2065 </r>
       <r>     5.6278    49.0925   551.6555 </r>
       <r>     5.7795    79.6734   563.7447 </r>
       <r>     5.9313    98.2036   578.6456 </r>
       <r>     6.0830    92.4855   592.6788 </r>
       <r>     6.2348    66.6285   602.7886 </r>
       <r>     6.3865    50.2593   610.4147 </r>
       <r>     6.5382    36.2756   615.9190 </r>
       <r>     6.6900    23.1795   619.4361 </r>
       <r>     6.8417    26.3137   623.4288 </r>
       <r>     6.9934    19.9193   626.4512 </r>
       <r>     7.1452    21.6923   629.7427 </r>
       <r>     7.2969    18.2472   632.5114 </r>
       <r>     7.4486    13.9172   634.6231 </r>
       <r>     7.6004    13.8456   636.7240 </r>
       <r>     7.7521    11.3162   638.4410 </r>
       <r>     7.9038    19.9905   641.4743 </r>
       <r>     8.0556    26.5553   645.5036 </r>
       <r>     8.2073    20.2647   648.5785 </r>
       <r>     8.3590    26.4727   652.5953 </r>
       <r>     8.5108    26.8612   656.6711 </r>
       <r>     8.6625    20.0345   659.7110 </r>
       <r>     8.8142    23.6592   663.3010 </r>
       <r>     8.9660    30.1233   667.8717 </r>
       <r>     9.1177    32.0044   672.7279 </r>
       <r>     9.2694    43.0543   679.2607 </r>
       <r>     9.4212    37.8627   685.0058 </r>
       <r>     9.5729    43.0081   691.5316 </r>
       <r>     9.7246    40.9758   697.7490 </r>
       <r>     9.8764    57.4187   706.4614 </r>
       <r>    10.0281    69.9414   717.0739 </r>
       <r>    10.1798    72.2884   728.0426 </r>
       <r>    10.3316    76.0436   739.5810 </r>
       <r>    10.4833    54.5970   747.8653 </r>
       <r>    10.6351    55.6489   756.3091 </r>
       <r>    10.7868    55.4125   764.7171 </r>
       <r>    10.9385    21.6137   767.9966 </r>
       <r>    11.0903     0.0222   768.0000 </r>
       <r>    11.2420     0.0000   768.0000 </r>
       <r>    11.3937     0.0000   768.0000 </r>
       <r>    11.5455     0.0000   768.0000 </r>
       <r>    11.6972     0.0000   768.0000 </r>
       <r>    11.8489     0.0000   768.0000 </r>
       <r>    12.0007     0.0000   768.0000 </r>
       <r>    12.1524     0.0000   768.0000 </r>
       <r>    12.3041     0.0000   768.0000 </r>
       <r>    12.4559     0.0000   768.0000 </r>
       <r>    12.6076     0.0000   768.0000 </r>
       <r>    12.7593     0.0000   768.0000 </r>
       <r>    12.9111     0.0000   768.0000 </r>
      </set>
     </set>
    </array>
   </total>
  </dos>
 </calculation>
 <structure name="finalpos" >
  <crystal>
   <varray name="basis" >
    <v>      11.21585529      -0.00205966       0.00000000 </v>
    <v>      -0.00205065      11.21959458       0.00000000 </v>
    <v>       0.00000000       0.00000000      15.92834686 </v>
   </varray>
   <i name="volume">   2004.38087910 </i>
   <varray name="rec_basis" >
    <v>       0.08915950       0.00001630       0.00000000 </v>
    <v>       0.00001637       0.08912978       0.00000000 </v>
    <v>       0.00000000       0.00000000       0.06278115 </v>
   </varray>
  </crystal>
  <varray name="positions" >
   <v>       0.00343626       0.25018619       0.12221562 </v>
   <v>       0.00052876       0.24884132       0.62653389 </v>
   <v>       0.99764276       0.75004336       0.12497552 </v>
   <v>       0.99788514       0.75131708       0.62576773 </v>
   <v>       0.49378221       0.25048454       0.12267319 </v>
   <v>       0.50062822       0.24928816       0.62537079 </v>
   <v>       0.49935945       0.74845147       0.12262275 </v>
   <v>       0.50233801       0.75088268       0.62702649 </v>
   <v>       0.00343626       0.25018619       0.37778438 </v>
   <v>       0.00052876       0.24884132       0.87346611 </v>
   <v>       0.99764276       0.75004336       0.37502448 </v>
   <v>       0.99788514       0.75131708       0.87423227 </v>
   <v>       0.49378221       0.25048454       0.37732681 </v>
   <v>       0.50062822       0.24928816       0.87462921 </v>
   <v>       0.49935945       0.74845147       0.37737725 </v>
   <v>       0.50233801       0.75088268       0.87297351 </v>
   <v>       0.25221283       0.00214098       0.12455115 </v>
   <v>       0.25050917       0.00026101       0.62534264 </v>
   <v>       0.24919608       0.49959085       0.12383563 </v>
   <v>       0.25000277       0.49968047       0.62581088 </v>
   <v>       0.74786014       0.99081578       0.11779995 </v>
   <v>       0.75065085       0.99690651       0.62777794 </v>
   <v>       0.74807523       0.51072463       0.12383548 </v>
   <v>       0.75044562       0.50148065       0.62634646 </v>
   <v>       0.25221283       0.00214098       0.37544885 </v>
   <v>       0.25050917       0.00026101       0.87465736 </v>
   <v>       0.24919608       0.49959085       0.37616437 </v>
   <v>       0.25000277       0.49968047       0.87418912 </v>
   <v>       0.74786014       0.99081578       0.38220005 </v>
   <v>       0.75065085       0.99690651       0.87222206 </v>
   <v>       0.74807523       0.51072463       0.37616452 </v>
   <v>       0.75044562       0.50148065       0.87365354 </v>
   <v>       0.99991828       0.00060006       0.00168524 </v>
   <v>       0.99991828       0.00060006       0.49831476 </v>
   <v>       0.99967810       0.49969920       0.00044424 </v>
   <v>       0.99967810       0.49969920       0.49955576 </v>
   <v>       0.50019269       0.00055486       0.00092652 </v>
   <v>       0.50019269       0.00055486       0.49907348 </v>
   <v>       0.49996609       0.49996963       0.99994944 </v>
   <v>       0.49996609       0.49996963       0.50005056 </v>
   <v>       0.24982110       0.24995347       0.99939333 </v>
   <v>       0.24982110       0.24995347       0.50060667 </v>
   <v>       0.24967715       0.74983213       0.00011637 </v>
   <v>       0.24967715       0.74983213       0.49988363 </v>
   <v>       0.74976803       0.24775632       0.00085843 </v>
   <v>       0.74976803       0.24775632       0.49914157 </v>
   <v>       0.74985543       0.74952064       0.99715796 </v>
   <v>       0.74985543       0.74952064       0.50284204 </v>
   <v>       0.24942421       0.24950301       0.25000000 </v>
   <v>       0.25018312       0.25015870       0.75000000 </v>
   <v>       0.25022795       0.74666993       0.25000000 </v>
   <v>       0.24970206       0.75054632       0.75000000 </v>
   <v>       0.75016466       0.25098587       0.75000000 </v>
   <v>       0.74930738       0.75632003       0.25000000 </v>
   <v>       0.99970394       0.99851168       0.75000000 </v>
   <v>       0.00216916       0.50232631       0.25000000 </v>
   <v>       0.99777613       0.50078206       0.75000000 </v>
   <v>       0.50069794       0.99850796       0.75000000 </v>
   <v>       0.49703008       0.50287995       0.25000000 </v>
   <v>       0.50134832       0.50038677       0.75000000 </v>
   <v>       0.01487999       0.99049799       0.25000000 </v>
   <v>       0.49125947       0.98607245       0.25000000 </v>
   <v>       0.75411062       0.27585548       0.25000000 </v>
   <v>       0.74982624       0.74941091       0.75000000 </v>
   <v>       0.99080449       0.00892264       0.12729407 </v>
   <v>       0.00152606       0.00053496       0.62413327 </v>
   <v>       0.00333544       0.50343776       0.12543847 </v>
   <v>       0.99566840       0.49581245       0.62373170 </v>
   <v>       0.50678962       0.01050888       0.12651494 </v>
   <v>       0.49733416       0.99866399       0.62453838 </v>
   <v>       0.49820640       0.50485951       0.12499001 </v>
   <v>       0.50200386       0.49448950       0.62408007 </v>
   <v>       0.99080449       0.00892264       0.37270593 </v>
   <v>       0.00152606       0.00053496       0.87586673 </v>
   <v>       0.00333544       0.50343776       0.37456153 </v>
   <v>       0.99566840       0.49581245       0.87626830 </v>
   <v>       0.50678962       0.01050888       0.37348506 </v>
   <v>       0.49733416       0.99866399       0.87546162 </v>
   <v>       0.49820640       0.50485951       0.37500999 </v>
   <v>       0.50200386       0.49448950       0.87591993 </v>
   <v>       0.25036984       0.25037358       0.37523869 </v>
   <v>       0.24957240       0.25059516       0.87547494 </v>
   <v>       0.25062376       0.74560134       0.37529988 </v>
   <v>       0.24876584       0.75303856       0.87540871 </v>
   <v>       0.74474538       0.21639123       0.36106333 </v>
   <v>       0.75024458       0.25563207       0.87704800 </v>
   <v>       0.74946176       0.74941522       0.37517384 </v>
   <v>       0.74929511       0.74990017       0.87609332 </v>
   <v>       0.25036984       0.25037358       0.12476131 </v>
   <v>       0.24957240       0.25059516       0.62452506 </v>
   <v>       0.25062376       0.74560134       0.12470012 </v>
   <v>       0.24876584       0.75303856       0.62459129 </v>
   <v>       0.74474538       0.21639123       0.13893667 </v>
   <v>       0.75024458       0.25563207       0.62295200 </v>
   <v>       0.74946176       0.74941522       0.12482616 </v>
   <v>       0.74929511       0.74990017       0.62390668 </v>
   <v>       0.10696297       0.14386384       0.25000000 </v>
   <v>       0.36786939       0.11488216       0.25000000 </v>
   <v>       0.14435531       0.39423186       0.25000000 </v>
   <v>       0.39250827       0.35994027       0.25000000 </v>
   <v>       0.63851013       0.39471036       0.25000000 </v>
   <v>       0.90025849       0.35538536       0.25000000 </v>
   <v>       0.10695226       0.64447552       0.25000000 </v>
   <v>       0.35534966       0.60576847       0.25000000 </v>
   <v>       0.60702773       0.64568944       0.25000000 </v>
   <v>       0.85954909       0.61100385       0.25000000 </v>
   <v>       0.14961116       0.89131006       0.25000000 </v>
   <v>       0.39304163       0.85073295       0.25000000 </v>
   <v>       0.64679086       0.90295612       0.25000000 </v>
   <v>       0.88847981       0.86641900       0.25000000 </v>
   <v>       0.14051496       0.10994388       0.49872105 </v>
   <v>       0.38987842       0.14058743       0.50033772 </v>
   <v>       0.64063552       0.10954036       0.50451132 </v>
   <v>       0.88964690       0.14077756       0.50120711 </v>
   <v>       0.11001106       0.36004256       0.49993613 </v>
   <v>       0.36081900       0.38935681       0.49894346 </v>
   <v>       0.61160660       0.35814420       0.49221478 </v>
   <v>       0.85867508       0.38671829       0.48960250 </v>
   <v>       0.13934146       0.60983764       0.50196033 </v>
   <v>       0.38999394       0.63970035       0.50260231 </v>
   <v>       0.63945526       0.60954550       0.50052493 </v>
   <v>       0.88901524       0.63828256       0.49942138 </v>
   <v>       0.10986473       0.86114317       0.49615465 </v>
   <v>       0.36075189       0.89028981       0.49627029 </v>
   <v>       0.61039882       0.86078188       0.49853925 </v>
   <v>       0.86128269       0.88866874       0.50107334 </v>
   <v>       0.11065378       0.14017373       0.75000000 </v>
   <v>       0.36002731       0.11059413       0.75000000 </v>
   <v>       0.61131690       0.14022967       0.75000000 </v>
   <v>       0.86025375       0.11227819       0.75000000 </v>
   <v>       0.13966681       0.39011701       0.75000000 </v>
   <v>       0.38968226       0.35957703       0.75000000 </v>
   <v>       0.64057842       0.38898598       0.75000000 </v>
   <v>       0.88986307       0.35898625       0.75000000 </v>
   <v>       0.11016682       0.63905171       0.75000000 </v>
   <v>       0.35992606       0.60971766       0.75000000 </v>
   <v>       0.60840484       0.63683227       0.75000000 </v>
   <v>       0.86188180       0.60866076       0.75000000 </v>
   <v>       0.14014901       0.89005302       0.75000000 </v>
   <v>       0.38878849       0.85950716       0.75000000 </v>
   <v>       0.63691783       0.89036745       0.75000000 </v>
   <v>       0.89050670       0.86304374       0.75000000 </v>
   <v>       0.14051496       0.10994388       0.00127895 </v>
   <v>       0.38987842       0.14058743       0.99966228 </v>
   <v>       0.64063552       0.10954036       0.99548868 </v>
   <v>       0.88964690       0.14077756       0.99879289 </v>
   <v>       0.11001106       0.36004256       0.00006387 </v>
   <v>       0.36081900       0.38935681       0.00105654 </v>
   <v>       0.61160660       0.35814420       0.00778522 </v>
   <v>       0.85867508       0.38671829       0.01039750 </v>
   <v>       0.13934146       0.60983764       0.99803967 </v>
   <v>       0.38999394       0.63970035       0.99739769 </v>
   <v>       0.63945526       0.60954550       0.99947507 </v>
   <v>       0.88901524       0.63828256       0.00057862 </v>
   <v>       0.10986473       0.86114317       0.00384535 </v>
   <v>       0.36075189       0.89028981       0.00372971 </v>
   <v>       0.61039882       0.86078188       0.00146075 </v>
   <v>       0.86128269       0.88866874       0.99892666 </v>
  </varray>
 </structure>
</modeling>
