       N       E                     dE             d eps       ncg     rms          rms(c)
DAV:   1    -0.108760543135E+04   -0.10876E+04   -0.15504E-01 13408   0.909E-01    0.324E-02
RMM:   2    -0.108760543934E+04   -0.79944E-05   -0.10547E-04  7382   0.190E-02    0.437E-02
RMM:   3    -0.108760543636E+04    0.29871E-05   -0.33531E-05  7093   0.120E-02    0.123E-02
RMM:   4    -0.108760544037E+04   -0.40148E-05   -0.17847E-05  6922   0.595E-03    0.116E-02
RMM:   5    -0.108760544263E+04   -0.22636E-05   -0.97869E-06  6580   0.604E-03    0.664E-03
RMM:   6    -0.108760544468E+04   -0.20478E-05   -0.82596E-06  6193   0.392E-03    0.499E-03
RMM:   7    -0.108760544558E+04   -0.89765E-06   -0.50076E-06  5473   0.425E-03    0.366E-03
RMM:   8    -0.108760544644E+04   -0.86409E-06   -0.37245E-06  4523   0.271E-03
   1 F= -.10876054E+04 E0= -.10876054E+04  d E =-.108761E+04  mag=    54.0000
       N       E                     dE             d eps       ncg     rms          rms(c)
DAV:   1    -0.108760531168E+04    0.13390E-03   -0.23180E+00 12800   0.179E+00    0.720E-01
RMM:   2    -0.108761072127E+04   -0.54096E-02   -0.73098E-02 12313   0.375E-01    0.589E-01
RMM:   3    -0.108761070391E+04    0.17352E-04   -0.45687E-03 13220   0.128E-01    0.346E-01
RMM:   4    -0.108761021032E+04    0.49359E-03   -0.14350E-03 12621   0.483E-02    0.206E-01
RMM:   5    -0.108761010191E+04    0.10841E-03   -0.61324E-04 11045   0.351E-02    0.988E-02
RMM:   6    -0.108761010438E+04   -0.24662E-05   -0.12994E-04  7949   0.183E-02    0.561E-02
RMM:   7    -0.108761010974E+04   -0.53552E-05   -0.44505E-05  7335   0.126E-02    0.328E-02
RMM:   8    -0.108761011625E+04   -0.65192E-05   -0.26415E-05  7246   0.827E-03
   2 F= -.10876101E+04 E0= -.10876101E+04  d E =-.466981E-02  mag=    54.0000
       N       E                     dE             d eps       ncg     rms          rms(c)
DAV:   1    -0.108761026959E+04   -0.15985E-03   -0.93218E-02 13472   0.360E-01    0.145E-01
RMM:   2    -0.108761048072E+04   -0.21113E-03   -0.28904E-03 12296   0.754E-02    0.119E-01
RMM:   3    -0.108761047621E+04    0.45100E-05   -0.13080E-04  7538   0.266E-02    0.687E-02
RMM:   4    -0.108761045771E+04    0.18501E-04   -0.63806E-05  6942   0.126E-02    0.460E-02
RMM:   5    -0.108761045287E+04    0.48348E-05   -0.28601E-05  6844   0.894E-03    0.417E-02
RMM:   6    -0.108761045216E+04    0.70932E-06   -0.11083E-05  6681   0.585E-03    0.104E-02
RMM:   7    -0.108761045178E+04    0.38535E-06   -0.34841E-06  5043   0.329E-03    0.702E-03
RMM:   8    -0.108761045134E+04    0.44164E-06   -0.20160E-06  4435   0.267E-03
   3 F= -.10876105E+04 E0= -.10876105E+04  d E =-.500489E-02  mag=    54.0000
       N       E                     dE             d eps       ncg     rms          rms(c)
DAV:   1    -0.108761022733E+04    0.22445E-03   -0.20931E+00 12552   0.169E+00    0.453E-01
RMM:   2    -0.108761530616E+04   -0.50788E-02   -0.53145E-02 12468   0.308E-01    0.313E-01
RMM:   3    -0.108761543444E+04   -0.12828E-03   -0.30814E-03 12579   0.109E-01    0.196E-01
RMM:   4    -0.108761528138E+04    0.15306E-03   -0.71129E-04 11821   0.331E-02    0.104E-01
RMM:   5    -0.108761523589E+04    0.45485E-04   -0.24137E-04  8018   0.223E-02    0.436E-02
RMM:   6    -0.108761524151E+04   -0.56182E-05   -0.60081E-05  7258   0.157E-02    0.290E-02
RMM:   7    -0.108761524442E+04   -0.29089E-05   -0.29524E-05  7139   0.853E-03    0.143E-02
RMM:   8    -0.108761524567E+04   -0.12539E-05   -0.15729E-05  7008   0.773E-03
   4 F= -.10876152E+04 E0= -.10876152E+04  d E =-.479434E-02  mag=    54.0000
       N       E                     dE             d eps       ncg     rms          rms(c)
DAV:   1    -0.108761268618E+04    0.25582E-02   -0.16246E+00 12544   0.149E+00    0.398E-01
RMM:   2    -0.108761666793E+04   -0.39818E-02   -0.41626E-02 12473   0.273E-01    0.276E-01
RMM:   3    -0.108761677248E+04   -0.10455E-03   -0.25144E-03 12654   0.980E-02    0.173E-01
RMM:   4    -0.108761665450E+04    0.11798E-03   -0.57821E-04 11121   0.294E-02    0.934E-02
RMM:   5    -0.108761661883E+04    0.35672E-04   -0.19812E-04  7627   0.215E-02    0.457E-02
RMM:   6    -0.108761662411E+04   -0.52834E-05   -0.66001E-05  7265   0.163E-02    0.270E-02
RMM:   7    -0.108761662667E+04   -0.25588E-05   -0.31111E-05  7145   0.892E-03    0.140E-02
RMM:   8    -0.108761662822E+04   -0.15470E-05   -0.17460E-05  7025   0.793E-03
   5 F= -.10876166E+04 E0= -.10876166E+04  d E =-.617688E-02  mag=    54.0000
       N       E                     dE             d eps       ncg     rms          rms(c)
DAV:   1    -0.108761636113E+04    0.26554E-03   -0.15352E+00 12528   0.143E+00    0.360E-01
RMM:   2    -0.108762009896E+04   -0.37378E-02   -0.38399E-02 12515   0.258E-01    0.249E-01
RMM:   3    -0.108762017300E+04   -0.74045E-04   -0.21895E-03 12430   0.927E-02    0.154E-01
RMM:   4    -0.108762007999E+04    0.93008E-04   -0.54190E-04 10776   0.281E-02    0.868E-02
RMM:   5    -0.108762005176E+04    0.28234E-04   -0.16842E-04  7560   0.200E-02    0.429E-02
RMM:   6    -0.108762005596E+04   -0.41975E-05   -0.61151E-05  7224   0.155E-02    0.220E-02
RMM:   7    -0.108762005803E+04   -0.20696E-05   -0.29106E-05  7085   0.834E-03    0.128E-02
RMM:   8    -0.108762005926E+04   -0.12284E-05   -0.15973E-05  6873   0.782E-03
   6 F= -.10876201E+04 E0= -.10876201E+04  d E =-.343104E-02  mag=    54.0000
       N       E                     dE             d eps       ncg     rms          rms(c)
DAV:   1    -0.108761497383E+04    0.50842E-02   -0.28472E+00 12480   0.195E+00    0.490E-01
RMM:   2    -0.108762189714E+04   -0.69233E-02   -0.71119E-02 12498   0.351E-01    0.341E-01
RMM:   3    -0.108762204058E+04   -0.14344E-03   -0.40524E-03 12661   0.125E-01    0.210E-01
RMM:   4    -0.108762186993E+04    0.17065E-03   -0.10091E-03 12871   0.375E-02    0.119E-01
RMM:   5    -0.108762181824E+04    0.51697E-04   -0.35397E-04  9515   0.235E-02    0.459E-02
RMM:   6    -0.108762182260E+04   -0.43612E-05   -0.76296E-05  7335   0.160E-02    0.305E-02
RMM:   7    -0.108762182517E+04   -0.25739E-05   -0.38869E-05  7190   0.100E-02    0.143E-02
RMM:   8    -0.108762182661E+04   -0.14393E-05   -0.22536E-05  7034   0.859E-03
   7 F= -.10876218E+04 E0= -.10876218E+04  d E =-.519839E-02  mag=    54.0000
       N       E                     dE             d eps       ncg     rms          rms(c)
DAV:   1    -0.108762081080E+04    0.10144E-02   -0.13734E+00 12576   0.137E+00    0.330E-01
RMM:   2    -0.108762429093E+04   -0.34801E-02   -0.34339E-02 12521   0.244E-01    0.207E-01
RMM:   3    -0.108762439810E+04   -0.10717E-03   -0.19466E-03 12262   0.912E-02    0.127E-01
RMM:   4    -0.108762433782E+04    0.60280E-04   -0.47136E-04 10137   0.267E-02    0.742E-02
RMM:   5    -0.108762431626E+04    0.21556E-04   -0.14250E-04  7352   0.186E-02    0.339E-02
RMM:   6    -0.108762432231E+04   -0.60480E-05   -0.49657E-05  7161   0.140E-02    0.191E-02
RMM:   7    -0.108762432579E+04   -0.34795E-05   -0.28616E-05  7082   0.784E-03    0.102E-02
RMM:   8    -0.108762432753E+04   -0.17392E-05   -0.16134E-05  6902   0.803E-03
   8 F= -.10876243E+04 E0= -.10876243E+04  d E =-.250092E-02  mag=    54.0000
       N       E                     dE             d eps       ncg     rms          rms(c)
DAV:   1    -0.108761986242E+04    0.44634E-02   -0.21680E+00 12544   0.172E+00    0.414E-01
RMM:   2    -0.108762535850E+04   -0.54961E-02   -0.54246E-02 12537   0.307E-01    0.260E-01
RMM:   3    -0.108762552568E+04   -0.16718E-03   -0.30567E-03 12498   0.112E-01    0.160E-01
RMM:   4    -0.108762543066E+04    0.95017E-04   -0.75111E-04 11798   0.329E-02    0.935E-02
RMM:   5    -0.108762539571E+04    0.34948E-04   -0.24233E-04  8079   0.221E-02    0.388E-02
RMM:   6    -0.108762540297E+04   -0.72566E-05   -0.71793E-05  7255   0.160E-02    0.278E-02
RMM:   7    -0.108762540683E+04   -0.38549E-05   -0.37959E-05  7159   0.995E-03    0.137E-02
RMM:   8    -0.108762540905E+04   -0.22231E-05   -0.20988E-05  7072   0.861E-03
   9 F= -.10876254E+04 E0= -.10876254E+04  d E =-.358244E-02  mag=    54.0000
       N       E                     dE             d eps       ncg     rms          rms(c)
DAV:   1    -0.108762409297E+04    0.13139E-02   -0.13241E+00 12576   0.135E+00    0.334E-01
RMM:   2    -0.108762741106E+04   -0.33181E-02   -0.33609E-02 12564   0.245E-01    0.231E-01
RMM:   3    -0.108762751849E+04   -0.10743E-03   -0.19973E-03 12664   0.896E-02    0.141E-01
RMM:   4    -0.108762745925E+04    0.59239E-04   -0.36347E-04  9172   0.250E-02    0.915E-02
RMM:   5    -0.108762742928E+04    0.29972E-04   -0.20132E-04  7593   0.197E-02    0.513E-02
RMM:   6    -0.108762743268E+04   -0.34056E-05   -0.64409E-05  7156   0.164E-02    0.288E-02
RMM:   7    -0.108762743587E+04   -0.31823E-05   -0.30004E-05  7055   0.791E-03    0.116E-02
RMM:   8    -0.108762743726E+04   -0.13950E-05   -0.16043E-05  6861   0.824E-03
  10 F= -.10876274E+04 E0= -.10876274E+04  d E =-.202821E-02  mag=    54.0000
       N       E                     dE             d eps       ncg     rms          rms(c)
DAV:   1    -0.108762332482E+04    0.41110E-02   -0.20013E+00 12544   0.166E+00    0.410E-01
RMM:   2    -0.108762832930E+04   -0.50045E-02   -0.50653E-02 12547   0.301E-01    0.283E-01
RMM:   3    -0.108762850069E+04   -0.17139E-03   -0.30209E-03 12878   0.110E-01    0.174E-01
RMM:   4    -0.108762841800E+04    0.82689E-04   -0.58012E-04 10848   0.305E-02    0.114E-01
RMM:   5    -0.108762837891E+04    0.39094E-04   -0.34714E-04  8892   0.245E-02    0.715E-02
RMM:   6    -0.108762837417E+04    0.47409E-05   -0.10734E-04  7386   0.191E-02    0.351E-02
RMM:   7    -0.108762837722E+04   -0.30574E-05   -0.39029E-05  7130   0.998E-03    0.141E-02
RMM:   8    -0.108762837883E+04   -0.16033E-05   -0.19782E-05  7010   0.836E-03
  11 F= -.10876284E+04 E0= -.10876284E+04  d E =-.296978E-02  mag=    54.0000
       N       E                     dE             d eps       ncg     rms          rms(c)
DAV:   1    -0.108762737140E+04    0.10058E-02   -0.99522E-01 12464   0.117E+00    0.310E-01
RMM:   2    -0.108762996381E+04   -0.25924E-02   -0.25754E-02 12502   0.214E-01    0.211E-01
RMM:   3    -0.108763003391E+04   -0.70102E-04   -0.14887E-03 12088   0.812E-02    0.119E-01
RMM:   4    -0.108762997570E+04    0.58210E-04   -0.36665E-04  9181   0.240E-02    0.744E-02
RMM:   5    -0.108762995616E+04    0.19542E-04   -0.11418E-04  7283   0.176E-02    0.466E-02
RMM:   6    -0.108762996200E+04   -0.58451E-05   -0.45738E-05  7123   0.131E-02    0.180E-02
RMM:   7    -0.108762996585E+04   -0.38542E-05   -0.23699E-05  7043   0.778E-03    0.116E-02
RMM:   8    -0.108762996820E+04   -0.23477E-05   -0.13984E-05  6890   0.724E-03
  12 F= -.10876300E+04 E0= -.10876300E+04  d E =-.158938E-02  mag=    54.0000
