<?xml version="1.0" encoding="ISO-8859-1"?>
<modeling>
 <generator>
  <i name="program" type="string">vasp </i>
  <i name="version" type="string">5.4.1  </i>
  <i name="subversion" type="string">05Feb16 (build Jan 25 2017 20:16:33) complex                          parallel </i>
  <i name="platform" type="string">BWXE6 </i>
  <i name="date" type="string">2019 08 12 </i>
  <i name="time" type="string">10:31:44 </i>
 </generator>
 <incar>
  <i type="string" name="SYSTEM"> STF</i>
  <i type="string" name="PREC">normal</i>
  <i type="string" name="ALGO"> Fast</i>
  <i type="int" name="ISPIN">     2</i>
  <i type="int" name="NELM">    40</i>
  <i type="int" name="NELMIN">     8</i>
  <i type="int" name="IBRION">     2</i>
  <i name="EDIFF">      0.00010000</i>
  <i name="EDIFFG">     -0.03000000</i>
  <i type="int" name="NSW">    30</i>
  <i type="int" name="ISIF">     3</i>
  <i name="ENCUT">    520.00000000</i>
  <i type="int" name="NBANDS">   768</i>
  <v name="MAGMOM">      0.60000000      0.60000000      0.60000000      0.60000000      0.60000000      0.60000000      0.60000000      0.60000000      0.60000000      0.60000000      0.60000000      0.60000000      0.60000000      0.60000000      0.60000000      0.60000000      0.60000000      0.60000000      0.60000000      0.60000000
      0.60000000      0.60000000      0.60000000      0.60000000      0.60000000      0.60000000      0.60000000      0.60000000      0.60000000      0.60000000      0.60000000      0.60000000      0.60000000      0.60000000      0.60000000      0.60000000      0.60000000      0.60000000      0.60000000      0.60000000
      0.60000000      0.60000000      0.60000000      0.60000000      0.60000000      0.60000000      0.60000000      0.60000000      0.60000000      0.60000000      0.60000000      0.60000000      5.00000000      5.00000000      5.00000000      5.00000000      5.00000000      5.00000000      5.00000000      5.00000000
      5.00000000      5.00000000      5.00000000      5.00000000      0.60000000      0.60000000      0.60000000      0.60000000      0.60000000      0.60000000      0.60000000      0.60000000      0.60000000      0.60000000      0.60000000      0.60000000      0.60000000      0.60000000      0.60000000      0.60000000
      0.60000000      0.60000000      0.60000000      0.60000000      0.60000000      0.60000000      0.60000000      0.60000000      0.60000000      0.60000000      0.60000000      0.60000000      0.60000000      0.60000000      0.60000000      0.60000000      0.60000000      0.60000000      0.60000000      0.60000000
      0.60000000      0.60000000      0.60000000      0.60000000      0.60000000      0.60000000      0.60000000      0.60000000      0.60000000      0.60000000      0.60000000      0.60000000      0.60000000      0.60000000      0.60000000      0.60000000      0.60000000      0.60000000      0.60000000      0.60000000
      0.60000000      0.60000000      0.60000000      0.60000000      0.60000000      0.60000000      0.60000000      0.60000000      0.60000000      0.60000000      0.60000000      0.60000000      0.60000000      0.60000000      0.60000000      0.60000000      0.60000000      0.60000000      0.60000000      0.60000000
      0.60000000      0.60000000      0.60000000      0.60000000      0.60000000      0.60000000      0.60000000      0.60000000      0.60000000      0.60000000      0.60000000      0.60000000      0.60000000      0.60000000</v>
  <i type="string" name="LREAL"> Auto</i>
  <i type="int" name="ISMEAR">     0</i>
  <i name="SIGMA">      0.05000000</i>
  <i type="int" name="LMAXMIX">     4</i>
  <v type="int" name="KPOINT_BSE">    -1     0     0     0</v>
  <i type="int" name="NELM">    40</i>
  <i type="logical" name="LDAU"> T  </i>
  <v type="int" name="LDAUTYPE">     2</v>
  <v type="int" name="LDAUL">     0     2     2     0</v>
  <v name="LDAUU">      0.00000000      3.00000000      5.00000000      0.00000000</v>
  <v name="LDAUJ">      0.00000000      0.00000000      0.00000000      0.00000000</v>
  <i type="int" name="LDAUPRINT">     1</i>
 </incar>
 <kpoints>
  <generation param="Monkhorst-Pack">
   <v type="int" name="divisions">       2        2        2 </v>
   <v name="usershift">      0.00000000       0.00000000       0.00000000 </v>
   <v name="genvec1">      0.50000000       0.00000000       0.00000000 </v>
   <v name="genvec2">     -0.00000000       0.50000000       0.00000000 </v>
   <v name="genvec3">     -0.00000000       0.00000000       0.50000000 </v>
   <v name="shift">      0.50000000       0.50000000       0.50000000 </v>
  </generation>
  <varray name="kpointlist" >
   <v>       0.25000000       0.25000000       0.25000000 </v>
   <v>      -0.25000000       0.25000000       0.25000000 </v>
   <v>       0.25000000      -0.25000000       0.25000000 </v>
   <v>      -0.25000000      -0.25000000       0.25000000 </v>
  </varray>
  <varray name="weights" >
   <v>       0.25000000 </v>
   <v>       0.25000000 </v>
   <v>       0.25000000 </v>
   <v>       0.25000000 </v>
  </varray>
 </kpoints>
 <parameters>
  <separator name="general" >
   <i type="string" name="SYSTEM">STF</i>
   <i type="logical" name="LCOMPAT"> F  </i>
  </separator>
  <separator name="electronic" >
   <i type="string" name="PREC">normal</i>
   <i name="ENMAX">    520.00000000</i>
   <i name="ENAUG">    605.39200000</i>
   <i name="EDIFF">      0.00010000</i>
   <i type="int" name="IALGO">    68</i>
   <i type="int" name="IWAVPR">    11</i>
   <i type="int" name="NBANDS">   768</i>
   <i name="NELECT">   1036.00000000</i>
   <i type="int" name="TURBO">     0</i>
   <i type="int" name="IRESTART">     0</i>
   <i type="int" name="NREBOOT">     0</i>
   <i type="int" name="NMIN">     0</i>
   <i name="EREF">      0.00000000</i>
   <separator name="electronic smearing" >
    <i type="int" name="ISMEAR">     0</i>
    <i name="SIGMA">      0.05000000</i>
    <i name="KSPACING">      0.50000000</i>
    <i type="logical" name="KGAMMA"> T  </i>
   </separator>
   <separator name="electronic projectors" >
    <i type="logical" name="LREAL"> T  </i>
    <v name="ROPT">     -0.00050000     -0.00050000     -0.00050000     -0.00050000</v>
    <i type="int" name="LMAXPAW">  -100</i>
    <i type="int" name="LMAXMIX">     4</i>
    <i type="logical" name="NLSPLINE"> F  </i>
   </separator>
   <separator name="electronic startup" >
    <i type="int" name="ISTART">     1</i>
    <i type="int" name="ICHARG">     0</i>
    <i type="int" name="INIWAV">     1</i>
   </separator>
   <separator name="electronic spin" >
    <i type="int" name="ISPIN">     2</i>
    <i type="logical" name="LNONCOLLINEAR"> F  </i>
    <v name="MAGMOM">      0.60000000      0.60000000      0.60000000      0.60000000      0.60000000      0.60000000      0.60000000      0.60000000      0.60000000      0.60000000      0.60000000      0.60000000      0.60000000      0.60000000      0.60000000      0.60000000      0.60000000      0.60000000      0.60000000      0.60000000
      0.60000000      0.60000000      0.60000000      0.60000000      0.60000000      0.60000000      0.60000000      0.60000000      0.60000000      0.60000000      0.60000000      0.60000000      0.60000000      0.60000000      0.60000000      0.60000000      0.60000000      0.60000000      0.60000000      0.60000000
      0.60000000      0.60000000      0.60000000      0.60000000      0.60000000      0.60000000      0.60000000      0.60000000      0.60000000      0.60000000      0.60000000      0.60000000      5.00000000      5.00000000      5.00000000      5.00000000      5.00000000      5.00000000      5.00000000      5.00000000
      5.00000000      5.00000000      5.00000000      5.00000000      0.60000000      0.60000000      0.60000000      0.60000000      0.60000000      0.60000000      0.60000000      0.60000000      0.60000000      0.60000000      0.60000000      0.60000000      0.60000000      0.60000000      0.60000000      0.60000000
      0.60000000      0.60000000      0.60000000      0.60000000      0.60000000      0.60000000      0.60000000      0.60000000      0.60000000      0.60000000      0.60000000      0.60000000      0.60000000      0.60000000      0.60000000      0.60000000      0.60000000      0.60000000      0.60000000      0.60000000
      0.60000000      0.60000000      0.60000000      0.60000000      0.60000000      0.60000000      0.60000000      0.60000000      0.60000000      0.60000000      0.60000000      0.60000000      0.60000000      0.60000000      0.60000000      0.60000000      0.60000000      0.60000000      0.60000000      0.60000000
      0.60000000      0.60000000      0.60000000      0.60000000      0.60000000      0.60000000      0.60000000      0.60000000      0.60000000      0.60000000      0.60000000      0.60000000      0.60000000      0.60000000      0.60000000      0.60000000      0.60000000      0.60000000      0.60000000      0.60000000
      0.60000000      0.60000000      0.60000000      0.60000000      0.60000000      0.60000000      0.60000000      0.60000000      0.60000000      0.60000000      0.60000000      0.60000000      0.60000000      0.60000000</v>
    <i name="NUPDOWN">     -1.00000000</i>
    <i type="logical" name="LSORBIT"> F  </i>
    <v name="SAXIS">      0.00000000      0.00000000      1.00000000</v>
    <i type="logical" name="LSPIRAL"> F  </i>
    <v name="QSPIRAL">      0.00000000      0.00000000      0.00000000</v>
    <i type="logical" name="LZEROZ"> F  </i>
   </separator>
   <separator name="electronic exchange-correlation" >
    <i type="logical" name="LASPH"> F  </i>
    <i type="logical" name="LMETAGGA"> F  </i>
   </separator>
   <separator name="electronic convergence" >
    <i type="int" name="NELM">    40</i>
    <i type="int" name="NELMDL">     0</i>
    <i type="int" name="NELMIN">     8</i>
    <i name="ENINI">    520.00000000</i>
    <separator name="electronic convergence detail" >
     <i type="logical" name="LDIAG"> T  </i>
     <i type="logical" name="LSUBROT"> F  </i>
     <i name="WEIMIN">      0.00100000</i>
     <i name="EBREAK">      0.00000003</i>
     <i name="DEPER">      0.30000000</i>
     <i type="int" name="NRMM">     4</i>
     <i name="TIME">      0.40000000</i>
    </separator>
   </separator>
   <separator name="electronic mixer" >
    <i name="AMIX">      0.40000000</i>
    <i name="BMIX">      1.00000000</i>
    <i name="AMIN">      0.10000000</i>
    <i name="AMIX_MAG">      1.60000000</i>
    <i name="BMIX_MAG">      1.00000000</i>
    <separator name="electronic mixer details" >
     <i type="int" name="IMIX">     4</i>
     <i type="logical" name="MIXFIRST"> F  </i>
     <i type="int" name="MAXMIX">   -45</i>
     <i name="WC">    100.00000000</i>
     <i type="int" name="INIMIX">     1</i>
     <i type="int" name="MIXPRE">     1</i>
     <i type="int" name="MREMOVE">     5</i>
    </separator>
   </separator>
   <separator name="electronic dipolcorrection" >
    <i type="logical" name="LDIPOL"> F  </i>
    <i type="logical" name="LMONO"> F  </i>
    <i type="int" name="IDIPOL">     0</i>
    <i name="EPSILON">      1.00000000</i>
    <v name="DIPOL">   -100.00000000   -100.00000000   -100.00000000</v>
    <i name="EFIELD">      0.00000000</i>
   </separator>
  </separator>
  <separator name="grids" >
   <i type="int" name="NGX">    64</i>
   <i type="int" name="NGY">    64</i>
   <i type="int" name="NGZ">    90</i>
   <i type="int" name="NGXF">   128</i>
   <i type="int" name="NGYF">   128</i>
   <i type="int" name="NGZF">   180</i>
   <i type="logical" name="ADDGRID"> F  </i>
  </separator>
  <separator name="ionic" >
   <i type="int" name="NSW">    30</i>
   <i type="int" name="IBRION">     2</i>
   <i type="int" name="ISIF">     3</i>
   <i name="PSTRESS">      0.00000000</i>
   <i name="EDIFFG">     -0.03000000</i>
   <i type="int" name="NFREE">     1</i>
   <i name="POTIM">      0.50000000</i>
   <i name="SMASS">     -3.00000000</i>
   <i name="SCALEE">      1.00000000</i>
  </separator>
  <separator name="ionic md" >
   <i name="TEBEG">      0.00010000</i>
   <i name="TEEND">      0.00010000</i>
   <i type="int" name="NBLOCK">     1</i>
   <i type="int" name="KBLOCK">    30</i>
   <i type="int" name="NPACO">   256</i>
   <i name="APACO">     16.00000000</i>
  </separator>
  <separator name="symmetry" >
   <i type="int" name="ISYM">     2</i>
   <i name="SYMPREC">      0.00001000</i>
  </separator>
  <separator name="dos" >
   <i type="logical" name="LORBIT"> F  </i>
   <v name="RWIGS">     -1.00000000     -1.00000000     -1.00000000     -1.00000000</v>
   <i type="int" name="NEDOS">   301</i>
   <i name="EMIN">     10.00000000</i>
   <i name="EMAX">    -10.00000000</i>
   <i name="EFERMI">      0.00000000</i>
  </separator>
  <separator name="writing" >
   <i type="int" name="NWRITE">     2</i>
   <i type="logical" name="LWAVE"> T  </i>
   <i type="logical" name="LCHARG"> T  </i>
   <i type="logical" name="LPARD"> F  </i>
   <i type="logical" name="LVTOT"> F  </i>
   <i type="logical" name="LVHAR"> F  </i>
   <i type="logical" name="LELF"> F  </i>
   <i type="logical" name="LOPTICS"> F  </i>
   <v name="STM">      0.00000000      0.00000000      0.00000000      0.00000000      0.00000000      0.00000000      0.00000000</v>
  </separator>
  <separator name="performance" >
   <i type="int" name="NPAR">     2</i>
   <i type="int" name="NSIM">     4</i>
   <i type="int" name="NBLK">    -1</i>
   <i type="logical" name="LPLANE"> T  </i>
   <i type="logical" name="LSCALAPACK"> T  </i>
   <i type="logical" name="LSCAAWARE"> F  </i>
   <i type="logical" name="LSCALU"> F  </i>
   <i type="logical" name="LASYNC"> F  </i>
   <i type="logical" name="LORBITALREAL"> F  </i>
  </separator>
  <separator name="miscellaneous" >
   <i type="int" name="IDIOT">     3</i>
   <i type="logical" name="LMUSIC"> F  </i>
   <v name="POMASS">     87.62000000     47.88000000     55.84700000     16.00000000</v>
   <v name="DARWINR">      0.00000000      0.00000000      0.00000000      0.00000000</v>
   <v name="DARWINV">      1.00000000      1.00000000      1.00000000      1.00000000</v>
   <i type="logical" name="LCORR"> T  </i>
  </separator>
  <i type="logical" name="GGA_COMPAT"> T  </i>
  <i type="logical" name="LBERRY"> F  </i>
  <i type="int" name="ICORELEVEL">     0</i>
  <i type="logical" name="LDAU"> T  </i>
  <v type="int" name="LDAUTYPE">     2</v>
  <v type="int" name="LDAUL">     0</v>
  <v name="LDAUU">      0.00000000</v>
  <v name="LDAUJ">      0.00000000</v>
  <i type="int" name="LDAUPRINT">     1</i>
  <i type="int" name="I_CONSTRAINED_M">     0</i>
  <separator name="electronic exchange-correlation" >
   <i type="string" name="GGA">--</i>
   <i type="int" name="VOSKOWN">     0</i>
   <i type="logical" name="LHFCALC"> F  </i>
   <i type="string" name="PRECFOCK"></i>
   <i type="logical" name="LSYMGRAD"> F  </i>
   <i type="logical" name="LHFONE"> F  </i>
   <i type="logical" name="LRHFCALC"> F  </i>
   <i type="logical" name="LTHOMAS"> F  </i>
   <i type="logical" name="LMODELHF"> F  </i>
   <i name="ENCUT4O">     -1.00000000</i>
   <i type="int" name="EXXOEP">     0</i>
   <i type="int" name="FOURORBIT">     0</i>
   <i name="AEXX">      0.00000000</i>
   <i name="HFALPHA">      0.00000000</i>
   <i name="MCALPHA">      0.00000000</i>
   <i name="ALDAX">      1.00000000</i>
   <i name="AGGAX">      1.00000000</i>
   <i name="ALDAC">      1.00000000</i>
   <i name="AGGAC">      1.00000000</i>
   <i type="int" name="NKREDX">     1</i>
   <i type="int" name="NKREDY">     1</i>
   <i type="int" name="NKREDZ">     1</i>
   <i type="logical" name="SHIFTRED"> F  </i>
   <i type="logical" name="ODDONLY"> F  </i>
   <i type="logical" name="EVENONLY"> F  </i>
   <i type="int" name="LMAXFOCK">     0</i>
   <i type="int" name="NMAXFOCKAE">     0</i>
   <i type="logical" name="LFOCKAEDFT"> F  </i>
   <i name="HFSCREEN">      0.00000000</i>
   <i name="HFSCREENC">      0.00000000</i>
   <i type="int" name="NBANDSGWLOW">     0</i>
  </separator>
  <separator name="vdW DFT" >
   <i type="logical" name="LUSE_VDW"> F  </i>
   <i name="Zab_VDW">     -0.84910000</i>
   <i name="PARAM1">      0.12340000</i>
   <i name="PARAM2">      1.00000000</i>
   <i name="PARAM3">      0.00000000</i>
  </separator>
  <separator name="model GW" >
   <i type="int" name="MODEL_GW">     0</i>
   <i name="MODEL_EPS0">      7.81954286</i>
   <i name="MODEL_ALPHA">      1.00000000</i>
  </separator>
  <separator name="linear response parameters" >
   <i type="logical" name="LEPSILON"> F  </i>
   <i type="logical" name="LRPA"> F  </i>
   <i type="logical" name="LNABLA"> F  </i>
   <i type="logical" name="LVEL"> F  </i>
   <i type="int" name="KINTER">     0</i>
   <i name="CSHIFT">      0.10000000</i>
   <i name="OMEGAMAX">     -1.00000000</i>
   <i name="DEG_THRESHOLD">      0.00200000</i>
  </separator>
  <separator name="orbital magnetization" >
   <i type="logical" name="NUCIND"> F  </i>
   <v name="MAGPOS">      0.00000000      0.00000000      0.00000000</v>
   <i type="logical" name="LNICSALL"> T  </i>
   <i type="logical" name="ORBITALMAG"> F  </i>
   <i type="logical" name="LMAGBLOCH"> F  </i>
   <i type="logical" name="LCHIMAG"> F  </i>
   <i type="logical" name="LGAUGE"> T  </i>
   <i type="int" name="MAGATOM">     0</i>
   <v name="MAGDIPOL">      0.00000000      0.00000000      0.00000000</v>
   <v name="AVECCONST">      0.00000000      0.00000000      0.00000000</v>
  </separator>
  <separator name="response functions" >
   <i type="logical" name="LADDER"> F  </i>
   <i type="logical" name="LFXC"> F  </i>
   <i type="logical" name="LHARTREE"> T  </i>
   <i type="int" name="IBSE">     0</i>
   <v type="int" name="KPOINT">    -1     0     0     0</v>
   <i type="logical" name="LTCTE"> F  </i>
   <i type="logical" name="LTETE"> F  </i>
   <i type="logical" name="LTRIPLET"> F  </i>
   <i type="logical" name="LFXCEPS"> F  </i>
   <i type="logical" name="LFXHEG"> F  </i>
   <i type="int" name="NATURALO">     0</i>
   <i type="logical" name="L2ORDER"> F  </i>
   <i type="logical" name="LUSEW"> F  </i>
   <i name="ENCUTGW">     -2.00000000</i>
   <i name="ENCUTGWSOFT">     -2.00000000</i>
   <i name="ENCUTLF">     -1.00000000</i>
   <i type="int" name="LMAXMP2">    -1</i>
   <i name="SCISSOR">      0.00000000</i>
   <i type="int" name="NOMEGA">     0</i>
   <i type="int" name="NOMEGAR">     0</i>
   <i type="int" name="NBANDSGW">    -1</i>
   <i type="int" name="NBANDSO">    -1</i>
   <i type="int" name="NBANDSV">    -1</i>
   <i type="int" name="NELM">    40</i>
   <i type="int" name="NELMHF">     1</i>
   <i type="int" name="DIM">     3</i>
   <i type="int" name="ANTIRES">     0</i>
   <i name="OMEGAMAX">    -30.00000000</i>
   <i name="OMEGAMIN">    -30.00000000</i>
   <i name="OMEGATL">   -200.00000000</i>
   <i type="int" name="OMEGAGRID">     0</i>
   <i name="CSHIFT">     -0.10000000</i>
   <i type="logical" name="SELFENERGY"> F  </i>
   <i type="logical" name="LSPECTRAL"> F  </i>
   <i type="logical" name="LSPECTRALGW"> F  </i>
   <i type="logical" name="LSINGLES"> F  </i>
   <i type="logical" name="LFERMIGW"> F  </i>
   <i type="logical" name="ODDONLYGW"> F  </i>
   <i type="logical" name="EVENONLYGW"> F  </i>
   <i type="int" name="NKREDLFX">     1</i>
   <i type="int" name="NKREDLFY">     1</i>
   <i type="int" name="NKREDLFZ">     1</i>
   <i type="int" name="MAXMEM">  1800</i>
   <i type="int" name="TELESCOPE">     0</i>
   <i type="int" name="TAUPAR">     1</i>
   <i type="int" name="OMEGAPAR">    -1</i>
   <i name="LAMBDA">      1.00000000</i>
  </separator>
  <separator name="External order field" >
   <i name="OFIELD_KAPPA">      0.00000000</i>
   <v name="OFIELD_K">      0.00000000      0.00000000      0.00000000</v>
   <i name="OFIELD_Q6_NEAR">      0.00000000</i>
   <i name="OFIELD_Q6_FAR">      0.00000000</i>
   <i name="OFIELD_A">      0.00000000</i>
  </separator>
 </parameters>
 <atominfo>
  <atoms>     154 </atoms>
  <types>       4 </types>
  <array name="atoms" >
   <dimension dim="1">ion</dimension>
   <field type="string">element</field>
   <field type="int">atomtype</field>
   <set>
    <rc><c>Sr</c><c>   1</c></rc>
    <rc><c>Sr</c><c>   1</c></rc>
    <rc><c>Sr</c><c>   1</c></rc>
    <rc><c>Sr</c><c>   1</c></rc>
    <rc><c>Sr</c><c>   1</c></rc>
    <rc><c>Sr</c><c>   1</c></rc>
    <rc><c>Sr</c><c>   1</c></rc>
    <rc><c>Sr</c><c>   1</c></rc>
    <rc><c>Sr</c><c>   1</c></rc>
    <rc><c>Sr</c><c>   1</c></rc>
    <rc><c>Sr</c><c>   1</c></rc>
    <rc><c>Sr</c><c>   1</c></rc>
    <rc><c>Sr</c><c>   1</c></rc>
    <rc><c>Sr</c><c>   1</c></rc>
    <rc><c>Sr</c><c>   1</c></rc>
    <rc><c>Sr</c><c>   1</c></rc>
    <rc><c>Sr</c><c>   1</c></rc>
    <rc><c>Sr</c><c>   1</c></rc>
    <rc><c>Sr</c><c>   1</c></rc>
    <rc><c>Sr</c><c>   1</c></rc>
    <rc><c>Sr</c><c>   1</c></rc>
    <rc><c>Sr</c><c>   1</c></rc>
    <rc><c>Sr</c><c>   1</c></rc>
    <rc><c>Sr</c><c>   1</c></rc>
    <rc><c>Sr</c><c>   1</c></rc>
    <rc><c>Sr</c><c>   1</c></rc>
    <rc><c>Sr</c><c>   1</c></rc>
    <rc><c>Sr</c><c>   1</c></rc>
    <rc><c>Sr</c><c>   1</c></rc>
    <rc><c>Sr</c><c>   1</c></rc>
    <rc><c>Sr</c><c>   1</c></rc>
    <rc><c>Sr</c><c>   1</c></rc>
    <rc><c>Ti</c><c>   2</c></rc>
    <rc><c>Ti</c><c>   2</c></rc>
    <rc><c>Ti</c><c>   2</c></rc>
    <rc><c>Ti</c><c>   2</c></rc>
    <rc><c>Ti</c><c>   2</c></rc>
    <rc><c>Ti</c><c>   2</c></rc>
    <rc><c>Ti</c><c>   2</c></rc>
    <rc><c>Ti</c><c>   2</c></rc>
    <rc><c>Ti</c><c>   2</c></rc>
    <rc><c>Ti</c><c>   2</c></rc>
    <rc><c>Ti</c><c>   2</c></rc>
    <rc><c>Ti</c><c>   2</c></rc>
    <rc><c>Ti</c><c>   2</c></rc>
    <rc><c>Ti</c><c>   2</c></rc>
    <rc><c>Ti</c><c>   2</c></rc>
    <rc><c>Ti</c><c>   2</c></rc>
    <rc><c>Ti</c><c>   2</c></rc>
    <rc><c>Ti</c><c>   2</c></rc>
    <rc><c>Ti</c><c>   2</c></rc>
    <rc><c>Ti</c><c>   2</c></rc>
    <rc><c>Fe</c><c>   3</c></rc>
    <rc><c>Fe</c><c>   3</c></rc>
    <rc><c>Fe</c><c>   3</c></rc>
    <rc><c>Fe</c><c>   3</c></rc>
    <rc><c>Fe</c><c>   3</c></rc>
    <rc><c>Fe</c><c>   3</c></rc>
    <rc><c>Fe</c><c>   3</c></rc>
    <rc><c>Fe</c><c>   3</c></rc>
    <rc><c>Fe</c><c>   3</c></rc>
    <rc><c>Fe</c><c>   3</c></rc>
    <rc><c>Fe</c><c>   3</c></rc>
    <rc><c>Fe</c><c>   3</c></rc>
    <rc><c>O </c><c>   4</c></rc>
    <rc><c>O </c><c>   4</c></rc>
    <rc><c>O </c><c>   4</c></rc>
    <rc><c>O </c><c>   4</c></rc>
    <rc><c>O </c><c>   4</c></rc>
    <rc><c>O </c><c>   4</c></rc>
    <rc><c>O </c><c>   4</c></rc>
    <rc><c>O </c><c>   4</c></rc>
    <rc><c>O </c><c>   4</c></rc>
    <rc><c>O </c><c>   4</c></rc>
    <rc><c>O </c><c>   4</c></rc>
    <rc><c>O </c><c>   4</c></rc>
    <rc><c>O </c><c>   4</c></rc>
    <rc><c>O </c><c>   4</c></rc>
    <rc><c>O </c><c>   4</c></rc>
    <rc><c>O </c><c>   4</c></rc>
    <rc><c>O </c><c>   4</c></rc>
    <rc><c>O </c><c>   4</c></rc>
    <rc><c>O </c><c>   4</c></rc>
    <rc><c>O </c><c>   4</c></rc>
    <rc><c>O </c><c>   4</c></rc>
    <rc><c>O </c><c>   4</c></rc>
    <rc><c>O </c><c>   4</c></rc>
    <rc><c>O </c><c>   4</c></rc>
    <rc><c>O </c><c>   4</c></rc>
    <rc><c>O </c><c>   4</c></rc>
    <rc><c>O </c><c>   4</c></rc>
    <rc><c>O </c><c>   4</c></rc>
    <rc><c>O </c><c>   4</c></rc>
    <rc><c>O </c><c>   4</c></rc>
    <rc><c>O </c><c>   4</c></rc>
    <rc><c>O </c><c>   4</c></rc>
    <rc><c>O </c><c>   4</c></rc>
    <rc><c>O </c><c>   4</c></rc>
    <rc><c>O </c><c>   4</c></rc>
    <rc><c>O </c><c>   4</c></rc>
    <rc><c>O </c><c>   4</c></rc>
    <rc><c>O </c><c>   4</c></rc>
    <rc><c>O </c><c>   4</c></rc>
    <rc><c>O </c><c>   4</c></rc>
    <rc><c>O </c><c>   4</c></rc>
    <rc><c>O </c><c>   4</c></rc>
    <rc><c>O </c><c>   4</c></rc>
    <rc><c>O </c><c>   4</c></rc>
    <rc><c>O </c><c>   4</c></rc>
    <rc><c>O </c><c>   4</c></rc>
    <rc><c>O </c><c>   4</c></rc>
    <rc><c>O </c><c>   4</c></rc>
    <rc><c>O </c><c>   4</c></rc>
    <rc><c>O </c><c>   4</c></rc>
    <rc><c>O </c><c>   4</c></rc>
    <rc><c>O </c><c>   4</c></rc>
    <rc><c>O </c><c>   4</c></rc>
    <rc><c>O </c><c>   4</c></rc>
    <rc><c>O </c><c>   4</c></rc>
    <rc><c>O </c><c>   4</c></rc>
    <rc><c>O </c><c>   4</c></rc>
    <rc><c>O </c><c>   4</c></rc>
    <rc><c>O </c><c>   4</c></rc>
    <rc><c>O </c><c>   4</c></rc>
    <rc><c>O </c><c>   4</c></rc>
    <rc><c>O </c><c>   4</c></rc>
    <rc><c>O </c><c>   4</c></rc>
    <rc><c>O </c><c>   4</c></rc>
    <rc><c>O </c><c>   4</c></rc>
    <rc><c>O </c><c>   4</c></rc>
    <rc><c>O </c><c>   4</c></rc>
    <rc><c>O </c><c>   4</c></rc>
    <rc><c>O </c><c>   4</c></rc>
    <rc><c>O </c><c>   4</c></rc>
    <rc><c>O </c><c>   4</c></rc>
    <rc><c>O </c><c>   4</c></rc>
    <rc><c>O </c><c>   4</c></rc>
    <rc><c>O </c><c>   4</c></rc>
    <rc><c>O </c><c>   4</c></rc>
    <rc><c>O </c><c>   4</c></rc>
    <rc><c>O </c><c>   4</c></rc>
    <rc><c>O </c><c>   4</c></rc>
    <rc><c>O </c><c>   4</c></rc>
    <rc><c>O </c><c>   4</c></rc>
    <rc><c>O </c><c>   4</c></rc>
    <rc><c>O </c><c>   4</c></rc>
    <rc><c>O </c><c>   4</c></rc>
    <rc><c>O </c><c>   4</c></rc>
    <rc><c>O </c><c>   4</c></rc>
    <rc><c>O </c><c>   4</c></rc>
    <rc><c>O </c><c>   4</c></rc>
    <rc><c>O </c><c>   4</c></rc>
    <rc><c>O </c><c>   4</c></rc>
    <rc><c>O </c><c>   4</c></rc>
   </set>
  </array>
  <array name="atomtypes" >
   <dimension dim="1">type</dimension>
   <field type="int">atomspertype</field>
   <field type="string">element</field>
   <field>mass</field>
   <field>valence</field>
   <field type="string">pseudopotential</field>
   <set>
    <rc><c>  32</c><c>Sr</c><c>     87.62000000</c><c>     10.00000000</c><c>  PAW_PBE Sr_sv 07Sep2000               </c></rc>
    <rc><c>  20</c><c>Ti</c><c>     47.88000000</c><c>      4.00000000</c><c>  PAW_PBE Ti 08Apr2002                  </c></rc>
    <rc><c>  12</c><c>Fe</c><c>     55.84700000</c><c>      8.00000000</c><c>  PAW_PBE Fe 06Sep2000                  </c></rc>
    <rc><c>  90</c><c>O </c><c>     16.00000000</c><c>      6.00000000</c><c>  PAW_PBE O 08Apr2002                   </c></rc>
   </set>
  </array>
 </atominfo>
 <structure name="initialpos" >
  <crystal>
   <varray name="basis" >
    <v>      11.26482311       0.00929508      -0.00145438 </v>
    <v>       0.00920432      11.26685226       0.00228655 </v>
    <v>      -0.00206171       0.00316987      15.81336066 </v>
   </varray>
   <i name="volume">   2007.01599957 </i>
   <varray name="rec_basis" >
    <v>       0.08877198      -0.00007252       0.00001159 </v>
    <v>      -0.00007324       0.08875600      -0.00001780 </v>
    <v>       0.00000818      -0.00001284       0.06323767 </v>
   </varray>
  </crystal>
  <varray name="positions" >
   <v>       0.99919279       0.25531342       0.11597113 </v>
   <v>       0.99944084       0.25369993       0.62737491 </v>
   <v>       0.99741803       0.73818874       0.11873170 </v>
   <v>       0.00360431       0.74412699       0.62438897 </v>
   <v>       0.50020434       0.25504711       0.11565324 </v>
   <v>       0.49706326       0.23844581       0.62468354 </v>
   <v>       0.49771753       0.73928224       0.12057929 </v>
   <v>       0.49823537       0.76317378       0.61588360 </v>
   <v>       0.99846846       0.25564455       0.38494154 </v>
   <v>       0.99974396       0.25363416       0.87136846 </v>
   <v>       0.99735722       0.73863841       0.38218370 </v>
   <v>       0.00366514       0.74376138       0.87428210 </v>
   <v>       0.50016378       0.25292570       0.38558124 </v>
   <v>       0.49592928       0.24122269       0.87266632 </v>
   <v>       0.49795942       0.74144956       0.38043755 </v>
   <v>       0.49895787       0.76071690       0.88244688 </v>
   <v>       0.24905531       0.99512839       0.11676908 </v>
   <v>       0.25171543       0.00500119       0.62477683 </v>
   <v>       0.24560395       0.50812004       0.11846298 </v>
   <v>       0.24042806       0.49352785       0.62324933 </v>
   <v>       0.75081668       0.99573275       0.11587468 </v>
   <v>       0.74648225       0.00424858       0.62677755 </v>
   <v>       0.74931576       0.50883818       0.12003014 </v>
   <v>       0.75920074       0.49803789       0.62260961 </v>
   <v>       0.25499338       0.99679947       0.38428509 </v>
   <v>       0.25017239       0.00486675       0.87322786 </v>
   <v>       0.24534979       0.50786846       0.38220016 </v>
   <v>       0.24111280       0.49294357       0.87528213 </v>
   <v>       0.74457433       0.99673846       0.38563617 </v>
   <v>       0.74799374       0.00459757       0.87147467 </v>
   <v>       0.74943268       0.50872183       0.38088587 </v>
   <v>       0.75910441       0.49793401       0.87650361 </v>
   <v>       0.99901084       0.00163026       0.49924110 </v>
   <v>       0.24784963       0.24891044       0.99983438 </v>
   <v>       0.49918017       0.00194999       0.00272289 </v>
   <v>       0.74991050       0.24919241       0.99844330 </v>
   <v>       0.49923881       0.50050933       0.99607520 </v>
   <v>       0.24791205       0.74799539       0.99811553 </v>
   <v>       0.00009038       0.00549347       0.74889672 </v>
   <v>       0.75034699       0.74850127       0.99748837 </v>
   <v>       0.99924749       0.00147028       0.99925775 </v>
   <v>       0.75233611       0.74613101       0.25026094 </v>
   <v>       0.99929198       0.49683904       0.75003459 </v>
   <v>       0.25113764       0.74621802       0.25029822 </v>
   <v>       0.00175490       0.50280174       0.24992277 </v>
   <v>       0.74869442       0.24831094       0.50176008 </v>
   <v>       0.49908896       0.50056354       0.50422698 </v>
   <v>       0.74872517       0.75022908       0.50283681 </v>
   <v>       0.24892617       0.24808040       0.50005400 </v>
   <v>       0.24921404       0.74965226       0.50186984 </v>
   <v>       0.50030953       0.99644111       0.74887495 </v>
   <v>       0.50157444       0.50215459       0.25060436 </v>
   <v>       0.99852238       0.49931049       0.49942270 </v>
   <v>       0.50799054       0.96923932       0.24828526 </v>
   <v>       0.76532803       0.76276731       0.75002943 </v>
   <v>       0.24108206       0.76565189       0.74981219 </v>
   <v>       0.99879460       0.49884235       0.00055932 </v>
   <v>       0.75038525       0.25197861       0.74960356 </v>
   <v>       0.75682149       0.28031118       0.25010616 </v>
   <v>       0.24656021       0.24972786       0.74941457 </v>
   <v>       0.25936717       0.28095706       0.25013720 </v>
   <v>       0.49889272       0.00225859       0.49854342 </v>
   <v>       0.00784442       0.96796841       0.25073359 </v>
   <v>       0.50353822       0.46972444       0.74986749 </v>
   <v>       0.99283780       0.02591833       0.13853872 </v>
   <v>       0.00058505       0.99871362       0.62239427 </v>
   <v>       0.00061667       0.50686425       0.12625079 </v>
   <v>       0.99841856       0.49391542       0.62429205 </v>
   <v>       0.49280027       0.02648099       0.13564955 </v>
   <v>       0.49887824       0.99731951       0.62499882 </v>
   <v>       0.50108861       0.50192068       0.12363369 </v>
   <v>       0.49449416       0.51230735       0.63447276 </v>
   <v>       0.99130702       0.02525744       0.36284957 </v>
   <v>       0.00098133       0.99933530       0.87749099 </v>
   <v>       0.00040951       0.50626382       0.37327159 </v>
   <v>       0.99825947       0.49293720       0.87625511 </v>
   <v>       0.49065884       0.03356419       0.35600245 </v>
   <v>       0.49907967       0.99666810       0.87828190 </v>
   <v>       0.50141062       0.50249744       0.37618506 </v>
   <v>       0.49626840       0.51330910       0.86590784 </v>
   <v>       0.24435620       0.22388866       0.36185017 </v>
   <v>       0.24753005       0.24958320       0.87859364 </v>
   <v>       0.25211901       0.74413857       0.37440991 </v>
   <v>       0.25471521       0.75079887       0.87484396 </v>
   <v>       0.73918937       0.22275656       0.36156036 </v>
   <v>       0.75137815       0.25193626       0.87770036 </v>
   <v>       0.75155220       0.74420522       0.37465135 </v>
   <v>       0.73610685       0.74866117       0.87378845 </v>
   <v>       0.24678761       0.22236446       0.13835621 </v>
   <v>       0.24897446       0.25025103       0.62214559 </v>
   <v>       0.25123614       0.74469349       0.12523106 </v>
   <v>       0.25487441       0.74885328       0.62578574 </v>
   <v>       0.73781638       0.22170331       0.13854723 </v>
   <v>       0.75084031       0.25228154       0.62297303 </v>
   <v>       0.75129495       0.74428086       0.12472984 </v>
   <v>       0.73618357       0.74914524       0.62699533 </v>
   <v>       0.15089948       0.40588763       0.24930882 </v>
   <v>       0.41406309       0.34477002       0.25019875 </v>
   <v>       0.65111973       0.40763984       0.24979223 </v>
   <v>       0.91172699       0.34389524       0.24965593 </v>
   <v>       0.10389175       0.65080445       0.24995625 </v>
   <v>       0.35416150       0.59904803       0.24979791 </v>
   <v>       0.60350161       0.64911565       0.25006315 </v>
   <v>       0.85272522       0.59981150       0.24974121 </v>
   <v>       0.16296850       0.90507360       0.25073289 </v>
   <v>       0.40016719       0.84330207       0.24907208 </v>
   <v>       0.66265432       0.90421561       0.24945279 </v>
   <v>       0.90069478       0.84230162       0.24945772 </v>
   <v>       0.13379238       0.11339041       0.49885916 </v>
   <v>       0.38284735       0.13601999       0.49991474 </v>
   <v>       0.63361529       0.11615303       0.50162013 </v>
   <v>       0.88388533       0.13479245       0.50025509 </v>
   <v>       0.11905345       0.36432007       0.49397290 </v>
   <v>       0.36504020       0.38377634       0.49585273 </v>
   <v>       0.61321979       0.36618642       0.50200291 </v>
   <v>       0.86095282       0.38027276       0.48899278 </v>
   <v>       0.13339863       0.61891153       0.50214635 </v>
   <v>       0.38358897       0.63260791       0.50051242 </v>
   <v>       0.63111100       0.61572764       0.50129497 </v>
   <v>       0.88025008       0.63544145       0.50408039 </v>
   <v>       0.11389921       0.86753861       0.49272960 </v>
   <v>       0.36631784       0.88330932       0.49631874 </v>
   <v>       0.61399725       0.86704514       0.48990521 </v>
   <v>       0.86533918       0.88505174       0.49810932 </v>
   <v>       0.10916878       0.13930008       0.74988345 </v>
   <v>       0.36349413       0.11029270       0.75123672 </v>
   <v>       0.61052643       0.13848877       0.75104600 </v>
   <v>       0.86176192       0.10974116       0.74980279 </v>
   <v>       0.13300190       0.38559232       0.75020051 </v>
   <v>       0.37266379       0.37577371       0.75288211 </v>
   <v>       0.65153511       0.40694394       0.75019466 </v>
   <v>       0.88833061       0.36182644       0.75019648 </v>
   <v>       0.12365548       0.63231682       0.75077700 </v>
   <v>       0.85990497       0.61339917       0.75036857 </v>
   <v>       0.14125944       0.89829166       0.74973390 </v>
   <v>       0.39709858       0.84754180       0.75071707 </v>
   <v>       0.63821952       0.88565523       0.75118487 </v>
   <v>       0.89838895       0.86192022       0.75056234 </v>
   <v>       0.13556141       0.11209941       0.00155165 </v>
   <v>       0.38627791       0.13712744       0.99940247 </v>
   <v>       0.63510588       0.11273173       0.99877996 </v>
   <v>       0.88488525       0.13536428       0.00053743 </v>
   <v>       0.11881232       0.36316413       0.00680533 </v>
   <v>       0.36438399       0.38430981       0.00398502 </v>
   <v>       0.61202079       0.36389354       0.99830012 </v>
   <v>       0.86015295       0.38046841       0.01162561 </v>
   <v>       0.13449440       0.61798252       0.99728718 </v>
   <v>       0.38470053       0.63424282       0.99931552 </v>
   <v>       0.63209509       0.61471838       0.99902932 </v>
   <v>       0.88118203       0.63595460       0.99573847 </v>
   <v>       0.11331976       0.86691729       0.00743577 </v>
   <v>       0.36614809       0.88608022       0.00445174 </v>
   <v>       0.61197137       0.86677694       0.01035768 </v>
   <v>       0.86450598       0.88567153       0.00162206 </v>
  </varray>
 </structure>
 <calculation>
  <scstep>
   <time name="dav">  303.79  303.81</time>
   <time name="total">  307.48  307.58</time>
   <energy>
    <i name="alphaZ">   5617.29932107 </i>
    <i name="ewald"> -61560.91719170 </i>
    <i name="hartreedc"> -16995.02765339 </i>
    <i name="XCdc">   3071.83804947 </i>
    <i name="pawpsdc"> 114247.52836807 </i>
    <i name="pawaedc">-113297.92942700 </i>
    <i name="eentropy">     -0.00000000 </i>
    <i name="bandstr">  -7087.20885942 </i>
    <i name="atom">  74916.81196153 </i>
    <i name="e_fr_energy">  -1087.60543135 </i>
    <i name="e_wo_entrp">  -1087.60543135 </i>
    <i name="e_0_energy">  -1087.60543135 </i>
   </energy>
  </scstep>
  <scstep>
   <time name="diag">   33.37   33.37</time>
   <time name="diis">   32.68   32.70</time>
   <time name="orth">   18.91   18.91</time>
   <time name="total">   88.69   88.77</time>
   <energy>
    <i name="e_fr_energy">  -1087.60543934 </i>
    <i name="e_wo_entrp">  -1087.60543934 </i>
    <i name="e_0_energy">  -1087.60543934 </i>
   </energy>
  </scstep>
  <scstep>
   <time name="diag">   33.30   33.31</time>
   <time name="diis">   31.69   31.69</time>
   <time name="orth">   18.89   18.89</time>
   <time name="total">   87.62   87.65</time>
   <energy>
    <i name="e_fr_energy">  -1087.60543636 </i>
    <i name="e_wo_entrp">  -1087.60543636 </i>
    <i name="e_0_energy">  -1087.60543636 </i>
   </energy>
  </scstep>
  <scstep>
   <time name="diag">   33.36   33.37</time>
   <time name="diis">   31.11   31.11</time>
   <time name="orth">   18.93   18.93</time>
   <time name="total">   87.13   87.22</time>
   <energy>
    <i name="e_fr_energy">  -1087.60544037 </i>
    <i name="e_wo_entrp">  -1087.60544037 </i>
    <i name="e_0_energy">  -1087.60544037 </i>
   </energy>
  </scstep>
  <scstep>
   <time name="diag">   33.31   33.34</time>
   <time name="diis">   30.55   30.57</time>
   <time name="orth">   18.90   18.90</time>
   <time name="total">   86.49   86.62</time>
   <energy>
    <i name="e_fr_energy">  -1087.60544263 </i>
    <i name="e_wo_entrp">  -1087.60544263 </i>
    <i name="e_0_energy">  -1087.60544263 </i>
   </energy>
  </scstep>
  <scstep>
   <time name="diag">   33.31   33.33</time>
   <time name="diis">   29.72   29.73</time>
   <time name="orth">   18.90   18.92</time>
   <time name="total">   85.66   85.79</time>
   <energy>
    <i name="e_fr_energy">  -1087.60544468 </i>
    <i name="e_wo_entrp">  -1087.60544468 </i>
    <i name="e_0_energy">  -1087.60544468 </i>
   </energy>
  </scstep>
  <scstep>
   <time name="diag">   33.28   33.31</time>
   <time name="diis">   28.60   28.61</time>
   <time name="orth">   18.88   18.89</time>
   <time name="total">   84.48   84.58</time>
   <energy>
    <i name="e_fr_energy">  -1087.60544558 </i>
    <i name="e_wo_entrp">  -1087.60544558 </i>
    <i name="e_0_energy">  -1087.60544558 </i>
   </energy>
  </scstep>
  <scstep>
   <time name="diag">   33.29   33.29</time>
   <time name="diis">   27.03   27.05</time>
   <time name="orth">   18.90   18.92</time>
   <time name="total">   79.79   79.94</time>
   <energy>
    <i name="alphaZ">   5617.29932107 </i>
    <i name="ewald"> -61560.91719170 </i>
    <i name="hartreedc"> -16995.04019893 </i>
    <i name="XCdc">   3071.83829329 </i>
    <i name="pawpsdc"> 114242.05876040 </i>
    <i name="pawaedc">-113292.44469120 </i>
    <i name="eentropy">     -0.00000000 </i>
    <i name="bandstr">  -7087.21170093 </i>
    <i name="atom">  74916.81196153 </i>
    <i name="e_fr_energy">  -1087.60544644 </i>
    <i name="e_wo_entrp">  -1087.60544644 </i>
    <i name="e_0_energy">  -1087.60544644 </i>
   </energy>
  </scstep>
  <structure>
   <crystal>
    <varray name="basis" >
     <v>      11.26482311       0.00929508      -0.00145438 </v>
     <v>       0.00920432      11.26685226       0.00228655 </v>
     <v>      -0.00206171       0.00316987      15.81336066 </v>
    </varray>
    <i name="volume">   2007.01599957 </i>
    <varray name="rec_basis" >
     <v>       0.08877198      -0.00007252       0.00001159 </v>
     <v>      -0.00007324       0.08875600      -0.00001780 </v>
     <v>       0.00000818      -0.00001284       0.06323767 </v>
    </varray>
   </crystal>
   <varray name="positions" >
    <v>       0.99919279       0.25531342       0.11597113 </v>
    <v>       0.99944084       0.25369993       0.62737491 </v>
    <v>       0.99741803       0.73818874       0.11873170 </v>
    <v>       0.00360431       0.74412699       0.62438897 </v>
    <v>       0.50020434       0.25504711       0.11565324 </v>
    <v>       0.49706326       0.23844581       0.62468354 </v>
    <v>       0.49771753       0.73928224       0.12057929 </v>
    <v>       0.49823537       0.76317378       0.61588360 </v>
    <v>       0.99846846       0.25564455       0.38494154 </v>
    <v>       0.99974396       0.25363416       0.87136846 </v>
    <v>       0.99735722       0.73863841       0.38218370 </v>
    <v>       0.00366514       0.74376138       0.87428210 </v>
    <v>       0.50016378       0.25292570       0.38558124 </v>
    <v>       0.49592928       0.24122269       0.87266632 </v>
    <v>       0.49795942       0.74144956       0.38043755 </v>
    <v>       0.49895787       0.76071690       0.88244688 </v>
    <v>       0.24905531       0.99512839       0.11676908 </v>
    <v>       0.25171543       0.00500119       0.62477683 </v>
    <v>       0.24560395       0.50812004       0.11846298 </v>
    <v>       0.24042806       0.49352785       0.62324933 </v>
    <v>       0.75081668       0.99573275       0.11587468 </v>
    <v>       0.74648225       0.00424858       0.62677755 </v>
    <v>       0.74931576       0.50883818       0.12003014 </v>
    <v>       0.75920074       0.49803789       0.62260961 </v>
    <v>       0.25499338       0.99679947       0.38428509 </v>
    <v>       0.25017239       0.00486675       0.87322786 </v>
    <v>       0.24534979       0.50786846       0.38220016 </v>
    <v>       0.24111280       0.49294357       0.87528213 </v>
    <v>       0.74457433       0.99673846       0.38563617 </v>
    <v>       0.74799374       0.00459757       0.87147467 </v>
    <v>       0.74943268       0.50872183       0.38088587 </v>
    <v>       0.75910441       0.49793401       0.87650361 </v>
    <v>       0.99901084       0.00163026       0.49924110 </v>
    <v>       0.24784963       0.24891044       0.99983438 </v>
    <v>       0.49918017       0.00194999       0.00272289 </v>
    <v>       0.74991050       0.24919241       0.99844330 </v>
    <v>       0.49923881       0.50050933       0.99607520 </v>
    <v>       0.24791205       0.74799539       0.99811553 </v>
    <v>       0.00009038       0.00549347       0.74889672 </v>
    <v>       0.75034699       0.74850127       0.99748837 </v>
    <v>       0.99924749       0.00147028       0.99925775 </v>
    <v>       0.75233611       0.74613101       0.25026094 </v>
    <v>       0.99929198       0.49683904       0.75003459 </v>
    <v>       0.25113764       0.74621802       0.25029822 </v>
    <v>       0.00175490       0.50280174       0.24992277 </v>
    <v>       0.74869442       0.24831094       0.50176008 </v>
    <v>       0.49908896       0.50056354       0.50422698 </v>
    <v>       0.74872517       0.75022908       0.50283681 </v>
    <v>       0.24892617       0.24808040       0.50005400 </v>
    <v>       0.24921404       0.74965226       0.50186984 </v>
    <v>       0.50030953       0.99644111       0.74887495 </v>
    <v>       0.50157444       0.50215459       0.25060436 </v>
    <v>       0.99852238       0.49931049       0.49942270 </v>
    <v>       0.50799054       0.96923932       0.24828526 </v>
    <v>       0.76532803       0.76276731       0.75002943 </v>
    <v>       0.24108206       0.76565189       0.74981219 </v>
    <v>       0.99879460       0.49884235       0.00055932 </v>
    <v>       0.75038525       0.25197861       0.74960356 </v>
    <v>       0.75682149       0.28031118       0.25010616 </v>
    <v>       0.24656021       0.24972786       0.74941457 </v>
    <v>       0.25936717       0.28095706       0.25013720 </v>
    <v>       0.49889272       0.00225859       0.49854342 </v>
    <v>       0.00784442       0.96796841       0.25073359 </v>
    <v>       0.50353822       0.46972444       0.74986749 </v>
    <v>       0.99283780       0.02591833       0.13853872 </v>
    <v>       0.00058505       0.99871362       0.62239427 </v>
    <v>       0.00061667       0.50686425       0.12625079 </v>
    <v>       0.99841856       0.49391542       0.62429205 </v>
    <v>       0.49280027       0.02648099       0.13564955 </v>
    <v>       0.49887824       0.99731951       0.62499882 </v>
    <v>       0.50108861       0.50192068       0.12363369 </v>
    <v>       0.49449416       0.51230735       0.63447276 </v>
    <v>       0.99130702       0.02525744       0.36284957 </v>
    <v>       0.00098133       0.99933530       0.87749099 </v>
    <v>       0.00040951       0.50626382       0.37327159 </v>
    <v>       0.99825947       0.49293720       0.87625511 </v>
    <v>       0.49065884       0.03356419       0.35600245 </v>
    <v>       0.49907967       0.99666810       0.87828190 </v>
    <v>       0.50141062       0.50249744       0.37618506 </v>
    <v>       0.49626840       0.51330910       0.86590784 </v>
    <v>       0.24435620       0.22388866       0.36185017 </v>
    <v>       0.24753005       0.24958320       0.87859364 </v>
    <v>       0.25211901       0.74413857       0.37440991 </v>
    <v>       0.25471521       0.75079887       0.87484396 </v>
    <v>       0.73918937       0.22275656       0.36156036 </v>
    <v>       0.75137815       0.25193626       0.87770036 </v>
    <v>       0.75155220       0.74420522       0.37465135 </v>
    <v>       0.73610685       0.74866117       0.87378845 </v>
    <v>       0.24678761       0.22236446       0.13835621 </v>
    <v>       0.24897446       0.25025103       0.62214559 </v>
    <v>       0.25123614       0.74469349       0.12523106 </v>
    <v>       0.25487441       0.74885328       0.62578574 </v>
    <v>       0.73781638       0.22170331       0.13854723 </v>
    <v>       0.75084031       0.25228154       0.62297303 </v>
    <v>       0.75129495       0.74428086       0.12472984 </v>
    <v>       0.73618357       0.74914524       0.62699533 </v>
    <v>       0.15089948       0.40588763       0.24930882 </v>
    <v>       0.41406309       0.34477002       0.25019875 </v>
    <v>       0.65111973       0.40763984       0.24979223 </v>
    <v>       0.91172699       0.34389524       0.24965593 </v>
    <v>       0.10389175       0.65080445       0.24995625 </v>
    <v>       0.35416150       0.59904803       0.24979791 </v>
    <v>       0.60350161       0.64911565       0.25006315 </v>
    <v>       0.85272522       0.59981150       0.24974121 </v>
    <v>       0.16296850       0.90507360       0.25073289 </v>
    <v>       0.40016719       0.84330207       0.24907208 </v>
    <v>       0.66265432       0.90421561       0.24945279 </v>
    <v>       0.90069478       0.84230162       0.24945772 </v>
    <v>       0.13379238       0.11339041       0.49885916 </v>
    <v>       0.38284735       0.13601999       0.49991474 </v>
    <v>       0.63361529       0.11615303       0.50162013 </v>
    <v>       0.88388533       0.13479245       0.50025509 </v>
    <v>       0.11905345       0.36432007       0.49397290 </v>
    <v>       0.36504020       0.38377634       0.49585273 </v>
    <v>       0.61321979       0.36618642       0.50200291 </v>
    <v>       0.86095282       0.38027276       0.48899278 </v>
    <v>       0.13339863       0.61891153       0.50214635 </v>
    <v>       0.38358897       0.63260791       0.50051242 </v>
    <v>       0.63111100       0.61572764       0.50129497 </v>
    <v>       0.88025008       0.63544145       0.50408039 </v>
    <v>       0.11389921       0.86753861       0.49272960 </v>
    <v>       0.36631784       0.88330932       0.49631874 </v>
    <v>       0.61399725       0.86704514       0.48990521 </v>
    <v>       0.86533918       0.88505174       0.49810932 </v>
    <v>       0.10916878       0.13930008       0.74988345 </v>
    <v>       0.36349413       0.11029270       0.75123672 </v>
    <v>       0.61052643       0.13848877       0.75104600 </v>
    <v>       0.86176192       0.10974116       0.74980279 </v>
    <v>       0.13300190       0.38559232       0.75020051 </v>
    <v>       0.37266379       0.37577371       0.75288211 </v>
    <v>       0.65153511       0.40694394       0.75019466 </v>
    <v>       0.88833061       0.36182644       0.75019648 </v>
    <v>       0.12365548       0.63231682       0.75077700 </v>
    <v>       0.85990497       0.61339917       0.75036857 </v>
    <v>       0.14125944       0.89829166       0.74973390 </v>
    <v>       0.39709858       0.84754180       0.75071707 </v>
    <v>       0.63821952       0.88565523       0.75118487 </v>
    <v>       0.89838895       0.86192022       0.75056234 </v>
    <v>       0.13556141       0.11209941       0.00155165 </v>
    <v>       0.38627791       0.13712744       0.99940247 </v>
    <v>       0.63510588       0.11273173       0.99877996 </v>
    <v>       0.88488525       0.13536428       0.00053743 </v>
    <v>       0.11881232       0.36316413       0.00680533 </v>
    <v>       0.36438399       0.38430981       0.00398502 </v>
    <v>       0.61202079       0.36389354       0.99830012 </v>
    <v>       0.86015295       0.38046841       0.01162561 </v>
    <v>       0.13449440       0.61798252       0.99728718 </v>
    <v>       0.38470053       0.63424282       0.99931552 </v>
    <v>       0.63209509       0.61471838       0.99902932 </v>
    <v>       0.88118203       0.63595460       0.99573847 </v>
    <v>       0.11331976       0.86691729       0.00743577 </v>
    <v>       0.36614809       0.88608022       0.00445174 </v>
    <v>       0.61197137       0.86677694       0.01035768 </v>
    <v>       0.86450598       0.88567153       0.00162206 </v>
   </varray>
  </structure>
  <varray name="forces" >
   <v>      -0.00079196      -0.00856251       0.02856689 </v>
   <v>       0.00423602      -0.00369081       0.00751232 </v>
   <v>       0.00164067       0.00506347       0.01479683 </v>
   <v>      -0.01240944      -0.00757939       0.01456422 </v>
   <v>      -0.00279237       0.01922201       0.02281322 </v>
   <v>      -0.00834791       0.00683015      -0.02447215 </v>
   <v>       0.00967421      -0.01046094       0.04255574 </v>
   <v>      -0.02660786      -0.00239279       0.01338404 </v>
   <v>       0.00832760       0.01661825      -0.01668598 </v>
   <v>      -0.00777783      -0.02880379      -0.02297258 </v>
   <v>      -0.00358878      -0.01543336      -0.01908808 </v>
   <v>      -0.00720396       0.01178711      -0.01184863 </v>
   <v>       0.00493154       0.02790690      -0.02851905 </v>
   <v>      -0.01282046       0.00921358       0.03316571 </v>
   <v>      -0.00335094      -0.01111987      -0.03067228 </v>
   <v>      -0.01284018       0.00063184      -0.01610579 </v>
   <v>       0.00895542      -0.01220736       0.02890299 </v>
   <v>      -0.01390775       0.01702320       0.00044225 </v>
   <v>       0.01756328      -0.00492086       0.03169451 </v>
   <v>      -0.02237967      -0.01512086       0.00514427 </v>
   <v>      -0.01665454      -0.01184261       0.03355838 </v>
   <v>       0.00724431       0.01376185       0.00425710 </v>
   <v>      -0.00636091       0.00657864       0.02280503 </v>
   <v>       0.01295952      -0.01935608       0.01491460 </v>
   <v>      -0.01565379      -0.00267534      -0.03589822 </v>
   <v>      -0.01812400       0.01631885       0.00792848 </v>
   <v>      -0.00053383       0.00562255      -0.02602134 </v>
   <v>      -0.01401128      -0.02122944      -0.01707177 </v>
   <v>       0.01921243      -0.01846333      -0.03769161 </v>
   <v>       0.01543217       0.00897334      -0.01122187 </v>
   <v>       0.00862914       0.01563657      -0.00798953 </v>
   <v>       0.00246296      -0.02198639      -0.01356270 </v>
   <v>      -0.00313341      -0.01032646       0.02819465 </v>
   <v>       0.03897900       0.00439308      -0.06585654 </v>
   <v>      -0.00461008      -0.01287957      -0.01155199 </v>
   <v>      -0.04178774       0.03032875      -0.04741202 </v>
   <v>       0.01639133      -0.04192761       0.00554638 </v>
   <v>       0.00245315       0.03563961      -0.02864930 </v>
   <v>       0.00628377       0.10225025      -0.00305817 </v>
   <v>      -0.02037029       0.03797899      -0.02726544 </v>
   <v>       0.00733339      -0.00603848      -0.03759129 </v>
   <v>      -0.02029615      -0.00242218       0.02859919 </v>
   <v>      -0.02031905       0.01652562      -0.06369858 </v>
   <v>       0.00370082      -0.01925380       0.01946126 </v>
   <v>      -0.02906543       0.00319570       0.07011797 </v>
   <v>       0.00939714       0.05014392       0.03133011 </v>
   <v>      -0.00422362      -0.02493523      -0.02575945 </v>
   <v>       0.02044203      -0.01483462      -0.00008270 </v>
   <v>      -0.03004570       0.05108040       0.04282085 </v>
   <v>      -0.02057342      -0.01656114       0.01315139 </v>
   <v>       0.02288355       0.03565523       0.02029052 </v>
   <v>      -0.00192486       0.03187627       0.01272238 </v>
   <v>      -0.00317808      -0.01829852       0.01256530 </v>
   <v>       0.01879161      -0.06140385      -0.04105275 </v>
   <v>       0.02066976      -0.01466886       0.01072865 </v>
   <v>      -0.02073279      -0.00418368       0.00662648 </v>
   <v>      -0.02272366      -0.00232834      -0.01887992 </v>
   <v>       0.03559050      -0.01035691       0.01405721 </v>
   <v>       0.01112289       0.00076782      -0.00873691 </v>
   <v>      -0.01844697      -0.00949157       0.00364012 </v>
   <v>       0.00966001       0.02261527       0.01624621 </v>
   <v>      -0.00186571      -0.00595873       0.01160511 </v>
   <v>      -0.00307383      -0.06958300       0.00980315 </v>
   <v>       0.02312995       0.02275905      -0.00334921 </v>
   <v>      -0.00027836       0.02491303      -0.03460592 </v>
   <v>      -0.00501607       0.03007997      -0.06137363 </v>
   <v>      -0.01229140      -0.01155673      -0.07307363 </v>
   <v>      -0.00778412       0.06204809       0.02163623 </v>
   <v>       0.02355219       0.01845629       0.01340083 </v>
   <v>      -0.00180758       0.02346481       0.02737443 </v>
   <v>      -0.00778881       0.00586655      -0.02609479 </v>
   <v>      -0.00182411      -0.00840691       0.00114459 </v>
   <v>      -0.00462808       0.01542595       0.00968685 </v>
   <v>      -0.00105534       0.02944352       0.06029510 </v>
   <v>      -0.00575039      -0.01347150      -0.00836967 </v>
   <v>      -0.00343044       0.05378580       0.04022525 </v>
   <v>       0.02173130      -0.00969179       0.06583785 </v>
   <v>      -0.00457582       0.02394406      -0.03397410 </v>
   <v>      -0.00667326       0.00985852       0.02160873 </v>
   <v>       0.00946284       0.00587046      -0.00649304 </v>
   <v>       0.00500149      -0.00600613      -0.01366346 </v>
   <v>       0.00478211      -0.02810569       0.03360568 </v>
   <v>      -0.00049368       0.00746641       0.02930402 </v>
   <v>      -0.00737388      -0.01318700       0.00028317 </v>
   <v>       0.03015736       0.00473826       0.00827070 </v>
   <v>      -0.01465610      -0.03771039       0.02635244 </v>
   <v>      -0.01042402      -0.00394703       0.03802371 </v>
   <v>       0.00150414      -0.03377330      -0.01641679 </v>
   <v>       0.01163650      -0.02243589      -0.00914826 </v>
   <v>       0.02567627      -0.02585856      -0.00840184 </v>
   <v>      -0.01076781       0.00475119      -0.05412289 </v>
   <v>      -0.01126494       0.00051978       0.00817904 </v>
   <v>       0.03590885       0.00101020       0.00546240 </v>
   <v>      -0.02106058      -0.03874799      -0.01912605 </v>
   <v>      -0.00342709       0.00103352      -0.03274826 </v>
   <v>      -0.00234314      -0.02714883       0.00644473 </v>
   <v>       0.00511224      -0.00800627       0.00228537 </v>
   <v>       0.03021528      -0.00078315       0.00318588 </v>
   <v>      -0.02283768       0.02098105      -0.00129934 </v>
   <v>       0.02177935       0.00104803      -0.00205162 </v>
   <v>       0.01228437      -0.00739525      -0.00623782 </v>
   <v>       0.01860518      -0.01796325      -0.01025950 </v>
   <v>      -0.01751538      -0.00451251      -0.01529993 </v>
   <v>       0.00365758       0.00190457      -0.01073886 </v>
   <v>       0.02158481       0.00817103       0.00126104 </v>
   <v>       0.02121066       0.02796351       0.01078205 </v>
   <v>      -0.00902244       0.00666496      -0.00078048 </v>
   <v>       0.03185621       0.01001048       0.00172778 </v>
   <v>      -0.05063554      -0.00832037       0.00039303 </v>
   <v>       0.00085407      -0.04771307       0.01260536 </v>
   <v>      -0.04211406       0.01286845      -0.00629516 </v>
   <v>       0.00090056      -0.04947383      -0.00658271 </v>
   <v>       0.03452216       0.00470486       0.04919881 </v>
   <v>       0.03497684       0.00048455       0.02466092 </v>
   <v>      -0.01740642       0.01778059       0.00084123 </v>
   <v>       0.02287861      -0.04653071       0.04901277 </v>
   <v>       0.01341293       0.03279646       0.01572069 </v>
   <v>       0.00720411      -0.00109339       0.02655545 </v>
   <v>      -0.02557181      -0.00815078       0.02394722 </v>
   <v>      -0.03468884       0.01877032       0.00078003 </v>
   <v>       0.00211605       0.02967015       0.01268501 </v>
   <v>       0.01782502      -0.01227335       0.01228297 </v>
   <v>       0.04133599       0.03104687       0.03297083 </v>
   <v>       0.01484809       0.01629592       0.02744638 </v>
   <v>      -0.01934437      -0.00844662      -0.00524158 </v>
   <v>       0.01538896      -0.04708726      -0.01220795 </v>
   <v>      -0.05505779      -0.02813085      -0.01259339 </v>
   <v>      -0.00695696      -0.00898694      -0.00203972 </v>
   <v>      -0.00268237      -0.03512999       0.00224450 </v>
   <v>      -0.02195855       0.01570179      -0.00255074 </v>
   <v>      -0.03050407       0.01725401      -0.00728711 </v>
   <v>       0.00424243      -0.01266923       0.00685309 </v>
   <v>       0.03107532       0.01230396       0.00463168 </v>
   <v>      -0.00542887       0.04314528       0.00711975 </v>
   <v>       0.05440716      -0.03358972      -0.00305019 </v>
   <v>       0.00717823      -0.00511427      -0.00521535 </v>
   <v>      -0.00358724       0.03215826      -0.01858213 </v>
   <v>      -0.02894737      -0.04782700       0.00620818 </v>
   <v>      -0.04538438       0.00108721       0.00251797 </v>
   <v>      -0.02932362      -0.02412465       0.00117668 </v>
   <v>      -0.02942990       0.02554280       0.00155858 </v>
   <v>       0.00913618      -0.06101365       0.01641625 </v>
   <v>      -0.01454318       0.04352090      -0.03912510 </v>
   <v>       0.02734909      -0.00871644      -0.02511945 </v>
   <v>      -0.00659748       0.02659278      -0.00051323 </v>
   <v>       0.05443763      -0.00107464      -0.04439593 </v>
   <v>      -0.02543439      -0.01304800      -0.01220775 </v>
   <v>      -0.00709419      -0.00262948      -0.02281910 </v>
   <v>      -0.01293202      -0.00905101      -0.00824196 </v>
   <v>       0.01181951      -0.03201795       0.00596493 </v>
   <v>      -0.00372969       0.02204737      -0.00818831 </v>
   <v>       0.01053424      -0.03344928      -0.01159808 </v>
   <v>       0.03834513       0.01929174      -0.04208825 </v>
   <v>       0.02736667       0.01678633      -0.02169479 </v>
  </varray>
  <varray name="stress" >
   <v>      -0.51968028      -0.06838798      -0.02942114 </v>
   <v>      -0.06838861      -0.15051734      -0.03076595 </v>
   <v>      -0.02942127      -0.03076602      -0.40086956 </v>
  </varray>
  <energy>
   <i name="e_fr_energy">  -1087.60544644 </i>
   <i name="e_wo_entrp">  -1087.60544644 </i>
   <i name="e_0_energy">     -0.00000000 </i>
  </energy>
  <time name="totalsc"> 1059.95 1062.20</time>
 </calculation>
 <calculation>
  <scstep>
   <time name="dav">  292.92  292.95</time>
   <time name="total">  296.62  296.69</time>
   <energy>
    <i name="alphaZ">   5619.66101378 </i>
    <i name="ewald"> -61568.53880406 </i>
    <i name="hartreedc"> -16998.32959020 </i>
    <i name="XCdc">   3072.39481843 </i>
    <i name="pawpsdc"> 114242.01555838 </i>
    <i name="pawaedc">-113292.40134234 </i>
    <i name="eentropy">     -0.00000000 </i>
    <i name="bandstr">  -7079.21892721 </i>
    <i name="atom">  74916.81196153 </i>
    <i name="e_fr_energy">  -1087.60531168 </i>
    <i name="e_wo_entrp">  -1087.60531168 </i>
    <i name="e_0_energy">  -1087.60531168 </i>
   </energy>
  </scstep>
  <scstep>
   <time name="diag">   33.33   33.37</time>
   <time name="diis">   51.74   51.74</time>
   <time name="orth">   18.88   18.88</time>
   <time name="total">  107.73  107.79</time>
   <energy>
    <i name="e_fr_energy">  -1087.61072127 </i>
    <i name="e_wo_entrp">  -1087.61072127 </i>
    <i name="e_0_energy">  -1087.61072127 </i>
   </energy>
  </scstep>
  <scstep>
   <time name="diag">   33.39   33.39</time>
   <time name="diis">   55.41   55.45</time>
   <time name="orth">   18.92   18.92</time>
   <time name="total">  111.51  111.62</time>
   <energy>
    <i name="e_fr_energy">  -1087.61070391 </i>
    <i name="e_wo_entrp">  -1087.61070391 </i>
    <i name="e_0_energy">  -1087.61070391 </i>
   </energy>
  </scstep>
  <scstep>
   <time name="diag">   33.37   33.37</time>
   <time name="diis">   52.87   52.90</time>
   <time name="orth">   18.89   18.89</time>
   <time name="total">  108.92  109.04</time>
   <energy>
    <i name="e_fr_energy">  -1087.61021032 </i>
    <i name="e_wo_entrp">  -1087.61021032 </i>
    <i name="e_0_energy">  -1087.61021032 </i>
   </energy>
  </scstep>
  <scstep>
   <time name="diag">   33.33   33.35</time>
   <time name="diis">   46.93   46.95</time>
   <time name="orth">   18.90   18.90</time>
   <time name="total">  102.94  103.05</time>
   <energy>
    <i name="e_fr_energy">  -1087.61010191 </i>
    <i name="e_wo_entrp">  -1087.61010191 </i>
    <i name="e_0_energy">  -1087.61010191 </i>
   </energy>
  </scstep>
  <scstep>
   <time name="diag">   33.34   33.38</time>
   <time name="diis">   34.91   34.91</time>
   <time name="orth">   18.89   18.88</time>
   <time name="total">   90.91   90.99</time>
   <energy>
    <i name="e_fr_energy">  -1087.61010438 </i>
    <i name="e_wo_entrp">  -1087.61010438 </i>
    <i name="e_0_energy">  -1087.61010438 </i>
   </energy>
  </scstep>
  <scstep>
   <time name="diag">   33.39   33.39</time>
   <time name="diis">   32.50   32.51</time>
   <time name="orth">   18.85   18.84</time>
   <time name="total">   88.49   88.54</time>
   <energy>
    <i name="e_fr_energy">  -1087.61010974 </i>
    <i name="e_wo_entrp">  -1087.61010974 </i>
    <i name="e_0_energy">  -1087.61010974 </i>
   </energy>
  </scstep>
  <scstep>
   <time name="diag">   33.38   33.39</time>
   <time name="diis">   32.21   32.22</time>
   <time name="orth">   18.91   18.91</time>
   <time name="total">   85.08   85.21</time>
   <energy>
    <i name="alphaZ">   5619.66101378 </i>
    <i name="ewald"> -61568.53880406 </i>
    <i name="hartreedc"> -16992.18923947 </i>
    <i name="XCdc">   3071.98489190 </i>
    <i name="pawpsdc"> 114306.41984975 </i>
    <i name="pawaedc">-113356.89828512 </i>
    <i name="eentropy">     -0.00000000 </i>
    <i name="bandstr">  -7084.86150457 </i>
    <i name="atom">  74916.81196153 </i>
    <i name="e_fr_energy">  -1087.61011625 </i>
    <i name="e_wo_entrp">  -1087.61011625 </i>
    <i name="e_0_energy">  -1087.61011625 </i>
   </energy>
  </scstep>
  <structure>
   <crystal>
    <varray name="basis" >
     <v>      11.26252562       0.00899223      -0.00158432 </v>
     <v>       0.00890005      11.26618650       0.00215005 </v>
     <v>      -0.00224395       0.00297882      15.81087306 </v>
    </varray>
    <i name="volume">   2006.17254032 </i>
    <varray name="rec_basis" >
     <v>       0.08879009      -0.00007014       0.00001261 </v>
     <v>      -0.00007087       0.08876124      -0.00001673 </v>
     <v>       0.00000891      -0.00001208       0.06324762 </v>
    </varray>
   </crystal>
   <varray name="positions" >
    <v>       0.99918944       0.25527674       0.11605828 </v>
    <v>       0.99945900       0.25368411       0.62739783 </v>
    <v>       0.99742505       0.73821040       0.11877684 </v>
    <v>       0.00355120       0.74409457       0.62443340 </v>
    <v>       0.50019233       0.25512940       0.11572282 </v>
    <v>       0.49702747       0.23847511       0.62460887 </v>
    <v>       0.49775902       0.73923738       0.12070913 </v>
    <v>       0.49812144       0.76316361       0.61592443 </v>
    <v>       0.99850405       0.25571569       0.38489063 </v>
    <v>       0.99971074       0.25351087       0.87129839 </v>
    <v>       0.99734190       0.73857235       0.38212547 </v>
    <v>       0.00363425       0.74381189       0.87424594 </v>
    <v>       0.50018479       0.25304520       0.38549422 </v>
    <v>       0.49587436       0.24126216       0.87276749 </v>
    <v>       0.49794509       0.74140198       0.38034398 </v>
    <v>       0.49890287       0.76071966       0.88239774 </v>
    <v>       0.24909372       0.99507606       0.11685727 </v>
    <v>       0.25165581       0.00507413       0.62477817 </v>
    <v>       0.24567920       0.50809888       0.11855969 </v>
    <v>       0.24033228       0.49346318       0.62326502 </v>
    <v>       0.75074542       0.99568208       0.11597706 </v>
    <v>       0.74651322       0.00430748       0.62679053 </v>
    <v>       0.74928851       0.50886635       0.12009971 </v>
    <v>       0.75925631       0.49795496       0.62265512 </v>
    <v>       0.25492633       0.99678810       0.38417557 </v>
    <v>       0.25009472       0.00493668       0.87325203 </v>
    <v>       0.24534747       0.50789256       0.38212077 </v>
    <v>       0.24105286       0.49285274       0.87523006 </v>
    <v>       0.74465665       0.99665937       0.38552120 </v>
    <v>       0.74805979       0.00463595       0.87144043 </v>
    <v>       0.74946957       0.50878876       0.38086149 </v>
    <v>       0.75911503       0.49783987       0.87646224 </v>
    <v>       0.99899747       0.00158603       0.49932712 </v>
    <v>       0.24801651       0.24892917       0.99963348 </v>
    <v>       0.49916046       0.00189487       0.00268765 </v>
    <v>       0.74973141       0.24932246       0.99829862 </v>
    <v>       0.49930916       0.50032974       0.99609215 </v>
    <v>       0.24792242       0.74814801       0.99802811 </v>
    <v>       0.00011693       0.00593127       0.74888733 </v>
    <v>       0.75025961       0.74866398       0.99740516 </v>
    <v>       0.99927890       0.00144443       0.99914308 </v>
    <v>       0.75224921       0.74612069       0.25034819 </v>
    <v>       0.99920486       0.49690992       0.74984024 </v>
    <v>       0.25115357       0.74613555       0.25035761 </v>
    <v>       0.00163046       0.50281546       0.25013667 </v>
    <v>       0.74873451       0.24852559       0.50185563 </v>
    <v>       0.49907095       0.50045680       0.50414841 </v>
    <v>       0.74881277       0.75016549       0.50283658 </v>
    <v>       0.24879734       0.24829918       0.50018460 </v>
    <v>       0.24912600       0.74958141       0.50190996 </v>
    <v>       0.50040742       0.99659368       0.74893684 </v>
    <v>       0.50156609       0.50229107       0.25064315 </v>
    <v>       0.99850884       0.49923214       0.49946104 </v>
    <v>       0.50807120       0.96897636       0.24816006 </v>
    <v>       0.76541661       0.76270442       0.75006217 </v>
    <v>       0.24099329       0.76563405       0.74983240 </v>
    <v>       0.99869728       0.49883248       0.00050172 </v>
    <v>       0.75053772       0.25193412       0.74964646 </v>
    <v>       0.75686912       0.28031443       0.25007951 </v>
    <v>       0.24648124       0.24968728       0.74942568 </v>
    <v>       0.25940847       0.28105385       0.25018675 </v>
    <v>       0.49888475       0.00223307       0.49857883 </v>
    <v>       0.00783151       0.96767047       0.25076354 </v>
    <v>       0.50363719       0.46982181       0.74985727 </v>
    <v>       0.99283650       0.02602504       0.13843313 </v>
    <v>       0.00056343       0.99884249       0.62220701 </v>
    <v>       0.00056403       0.50681488       0.12602786 </v>
    <v>       0.99838501       0.49418111       0.62435802 </v>
    <v>       0.49290108       0.02655992       0.13569043 </v>
    <v>       0.49887043       0.99741996       0.62508232 </v>
    <v>       0.50105521       0.50194585       0.12355408 </v>
    <v>       0.49448637       0.51227135       0.63447626 </v>
    <v>       0.99128715       0.02532350       0.36287911 </v>
    <v>       0.00097674       0.99946133       0.87767491 </v>
    <v>       0.00038493       0.50620616       0.37324606 </v>
    <v>       0.99824461       0.49316747       0.87637779 </v>
    <v>       0.49075198       0.03352256       0.35620332 </v>
    <v>       0.49905997       0.99677067       0.87817823 </v>
    <v>       0.50138202       0.50253966       0.37625097 </v>
    <v>       0.49630890       0.51333421       0.86588803 </v>
    <v>       0.24437763       0.22386294       0.36180849 </v>
    <v>       0.24755065       0.24946281       0.87869619 </v>
    <v>       0.25211689       0.74417051       0.37449930 </v>
    <v>       0.25468367       0.75074244       0.87484483 </v>
    <v>       0.73931851       0.22277674       0.36158560 </v>
    <v>       0.75131553       0.25177482       0.87778077 </v>
    <v>       0.75150759       0.74418833       0.37476735 </v>
    <v>       0.73611340       0.74851656       0.87373839 </v>
    <v>       0.24683752       0.22226836       0.13832832 </v>
    <v>       0.24908450       0.25014022       0.62211998 </v>
    <v>       0.25118997       0.74471392       0.12506593 </v>
    <v>       0.25482617       0.74885554       0.62581069 </v>
    <v>       0.73797016       0.22170750       0.13856391 </v>
    <v>       0.75075024       0.25211571       0.62291469 </v>
    <v>       0.75128025       0.74428532       0.12462993 </v>
    <v>       0.73617363       0.74902899       0.62701501 </v>
    <v>       0.15092140       0.40585332       0.24931580 </v>
    <v>       0.41419249       0.34476656       0.25020848 </v>
    <v>       0.65102185       0.40772976       0.24978825 </v>
    <v>       0.91182025       0.34389965       0.24964968 </v>
    <v>       0.10394438       0.65077274       0.24993723 </v>
    <v>       0.35424124       0.59897106       0.24976663 </v>
    <v>       0.60342661       0.64909640       0.25001647 </v>
    <v>       0.85274087       0.59981965       0.24970845 </v>
    <v>       0.16306091       0.90510851       0.25073674 </v>
    <v>       0.40025794       0.84342172       0.24910496 </v>
    <v>       0.66261566       0.90424418       0.24945041 </v>
    <v>       0.90083117       0.84234437       0.24946299 </v>
    <v>       0.13357555       0.11335496       0.49886034 </v>
    <v>       0.38285118       0.13581567       0.49995323 </v>
    <v>       0.63343488       0.11620829       0.50160090 </v>
    <v>       0.88388936       0.13458061       0.50023504 </v>
    <v>       0.11920130       0.36434005       0.49412300 </v>
    <v>       0.36519000       0.38377827       0.49592798 </v>
    <v>       0.61314518       0.36626262       0.50200546 </v>
    <v>       0.86105099       0.38007340       0.48914235 </v>
    <v>       0.13345597       0.61905190       0.50219429 </v>
    <v>       0.38361984       0.63260318       0.50059344 </v>
    <v>       0.63100153       0.61569281       0.50136802 </v>
    <v>       0.88010146       0.63552194       0.50408275 </v>
    <v>       0.11390818       0.86766564       0.49276828 </v>
    <v>       0.36639422       0.88325670       0.49635623 </v>
    <v>       0.61417419       0.86717790       0.49000579 </v>
    <v>       0.86540272       0.88512144       0.49819305 </v>
    <v>       0.10908596       0.13926398       0.74986746 </v>
    <v>       0.36356020       0.11009104       0.75119952 </v>
    <v>       0.61029074       0.13836853       0.75100757 </v>
    <v>       0.86173216       0.10970270       0.74979657 </v>
    <v>       0.13299054       0.38544191       0.75020738 </v>
    <v>       0.37256970       0.37584102       0.75287431 </v>
    <v>       0.65140441       0.40701793       0.75017241 </v>
    <v>       0.88834883       0.36177217       0.75021740 </v>
    <v>       0.12378852       0.63236939       0.75079113 </v>
    <v>       0.85988158       0.61358392       0.75039026 </v>
    <v>       0.14149256       0.89814764       0.74972464 </v>
    <v>       0.39712933       0.84751988       0.75070116 </v>
    <v>       0.63820403       0.88579295       0.75112816 </v>
    <v>       0.89826515       0.86171553       0.75058130 </v>
    <v>       0.13536704       0.11210422       0.00155931 </v>
    <v>       0.38615241       0.13702425       0.99940607 </v>
    <v>       0.63497976       0.11284120       0.99878469 </v>
    <v>       0.88492459       0.13510299       0.00058755 </v>
    <v>       0.11874987       0.36335056       0.00668594 </v>
    <v>       0.36450113       0.38427242       0.00390840 </v>
    <v>       0.61199244       0.36400743       0.99829853 </v>
    <v>       0.86038607       0.38046365       0.01149019 </v>
    <v>       0.13438551       0.61792675       0.99724994 </v>
    <v>       0.38467015       0.63423161       0.99924590 </v>
    <v>       0.63203973       0.61467968       0.99900417 </v>
    <v>       0.88123276       0.63581746       0.99575670 </v>
    <v>       0.11330371       0.86701172       0.00741078 </v>
    <v>       0.36619331       0.88593697       0.00441638 </v>
    <v>       0.61213550       0.86685945       0.01022929 </v>
    <v>       0.86462311       0.88574333       0.00155587 </v>
   </varray>
  </structure>
  <varray name="forces" >
   <v>       0.01291171      -0.01077077      -0.00355654 </v>
   <v>       0.00150773      -0.01405599      -0.01163492 </v>
   <v>       0.00647425      -0.00902055      -0.01984084 </v>
   <v>      -0.00902525       0.01353372       0.01917571 </v>
   <v>      -0.00655252       0.00839149       0.02395913 </v>
   <v>      -0.00822525      -0.00453523      -0.02459147 </v>
   <v>       0.00179942      -0.01734892      -0.00133284 </v>
   <v>      -0.01770306       0.00643052       0.01094398 </v>
   <v>       0.00569762      -0.02054151      -0.01388357 </v>
   <v>      -0.00480429      -0.00705653       0.02236920 </v>
   <v>       0.00262234       0.00763909      -0.00048015 </v>
   <v>      -0.00522499      -0.00045517       0.00360934 </v>
   <v>       0.00353110      -0.00363649      -0.01494258 </v>
   <v>      -0.00968103       0.00365167       0.01917066 </v>
   <v>      -0.00486556       0.00504373       0.01009055 </v>
   <v>      -0.01456849      -0.00878975      -0.02016560 </v>
   <v>      -0.00584425       0.00291544       0.01495554 </v>
   <v>       0.00938230      -0.00099461      -0.01276887 </v>
   <v>      -0.00875249       0.00058220      -0.00506851 </v>
   <v>       0.00665331       0.00361274       0.01727300 </v>
   <v>       0.00605137       0.00193368       0.00822193 </v>
   <v>      -0.01119156      -0.00513012      -0.01624852 </v>
   <v>       0.01344542       0.01023213      -0.00628280 </v>
   <v>      -0.01488752       0.00197629       0.01465976 </v>
   <v>      -0.00466090       0.00609027      -0.00976600 </v>
   <v>      -0.00755327      -0.00036503       0.01052272 </v>
   <v>       0.01196161       0.00608653      -0.01815121 </v>
   <v>      -0.02089530       0.00449666       0.00400741 </v>
   <v>       0.01174524       0.00144139      -0.00147317 </v>
   <v>       0.00743798      -0.00628447       0.00377359 </v>
   <v>      -0.00572717       0.00719039       0.00165178 </v>
   <v>       0.00977674       0.00459254       0.00361442 </v>
   <v>      -0.00601644       0.00415979      -0.03764503 </v>
   <v>      -0.04865757       0.01282177       0.03029573 </v>
   <v>      -0.00629374      -0.00841269      -0.02545111 </v>
   <v>       0.05042724      -0.00773781       0.02887073 </v>
   <v>      -0.00767380       0.04358513      -0.01094539 </v>
   <v>      -0.03191872      -0.04316203      -0.02580453 </v>
   <v>       0.00462501      -0.07650316      -0.00341292 </v>
   <v>       0.03136925      -0.02359596      -0.03096689 </v>
   <v>      -0.01078144       0.02062782       0.05982964 </v>
   <v>       0.00069274       0.01047602      -0.02494694 </v>
   <v>       0.00213914       0.04748164       0.07287124 </v>
   <v>      -0.00955554       0.01217533      -0.01578048 </v>
   <v>       0.01255369      -0.03240377      -0.09915328 </v>
   <v>      -0.03552132      -0.07759401      -0.02146267 </v>
   <v>       0.00834464       0.04199045       0.01138909 </v>
   <v>      -0.03390706       0.03596729       0.05607018 </v>
   <v>       0.03772615      -0.06910483      -0.00649883 </v>
   <v>       0.03674184       0.04772479       0.04467303 </v>
   <v>       0.00335290      -0.02202420      -0.02774429 </v>
   <v>      -0.00260988      -0.02295132      -0.00619993 </v>
   <v>      -0.00296077       0.01335171       0.01296603 </v>
   <v>       0.00034796       0.02703729       0.05371119 </v>
   <v>      -0.03296140       0.00029672      -0.00216157 </v>
   <v>       0.03384713      -0.01186633       0.00326485 </v>
   <v>       0.00060473       0.01170643      -0.00381208 </v>
   <v>      -0.01947532      -0.00153398      -0.00075534 </v>
   <v>      -0.00615802       0.00352039       0.00423882 </v>
   <v>       0.03794480       0.00576021       0.00506083 </v>
   <v>       0.01545532      -0.00859890      -0.02368997 </v>
   <v>      -0.00182917       0.00146331       0.00354049 </v>
   <v>       0.02104291       0.02220373      -0.01692319 </v>
   <v>      -0.03939172       0.02267777      -0.00068503 </v>
   <v>       0.00264355      -0.00501802       0.02892729 </v>
   <v>      -0.00810342       0.02839951       0.06646561 </v>
   <v>      -0.01396451      -0.00431050       0.05627997 </v>
   <v>      -0.00843397       0.04364154      -0.02024837 </v>
   <v>       0.02447380       0.01461172      -0.00247881 </v>
   <v>      -0.00124484       0.02119917       0.01456545 </v>
   <v>      -0.00599009       0.00036308       0.01129428 </v>
   <v>      -0.00081022      -0.01060112       0.00258958 </v>
   <v>      -0.00330219       0.00359819      -0.02109399 </v>
   <v>      -0.00063030       0.03307795      -0.08417607 </v>
   <v>      -0.00781860      -0.01180492       0.04899477 </v>
   <v>      -0.01013657       0.03585848      -0.07270234 </v>
   <v>       0.02993472      -0.03692173      -0.01963196 </v>
   <v>      -0.00411579       0.02378863       0.02074841 </v>
[...]
       <r>   -16.5670     0.0000    32.0000 </r>
       <r>   -16.4141     0.0000    32.0000 </r>
       <r>   -16.2612     0.0000    32.0000 </r>
       <r>   -16.1083     0.0000    32.0000 </r>
       <r>   -15.9554     0.0000    32.0000 </r>
       <r>   -15.8026     0.0000    32.0000 </r>
       <r>   -15.6497     0.0000    32.0000 </r>
       <r>   -15.4968     0.0000    32.0000 </r>
       <r>   -15.3439     0.0000    32.0000 </r>
       <r>   -15.1910     0.3994    32.0611 </r>
       <r>   -15.0381    18.6434    34.9114 </r>
       <r>   -14.8852    51.1636    42.7335 </r>
       <r>   -14.7324    45.1210    49.6319 </r>
       <r>   -14.5795    32.7042    54.6319 </r>
       <r>   -14.4266    38.2052    60.4729 </r>
       <r>   -14.2737    45.0946    67.3672 </r>
       <r>   -14.1208    91.9284    81.4217 </r>
       <r>   -13.9679   106.5011    97.7042 </r>
       <r>   -13.8151    92.0352   111.7750 </r>
       <r>   -13.6622    55.4912   120.2588 </r>
       <r>   -13.5093    11.3873   121.9998 </r>
       <r>   -13.3564     0.0016   122.0000 </r>
       <r>   -13.2035     0.0000   122.0000 </r>
       <r>   -13.0506     0.0000   122.0000 </r>
       <r>   -12.8977     0.0000   122.0000 </r>
       <r>   -12.7449     1.9663   122.3006 </r>
       <r>   -12.5920    57.0180   131.0178 </r>
       <r>   -12.4391   123.7561   149.9383 </r>
       <r>   -12.2862   142.3736   171.7052 </r>
       <r>   -12.1333   129.1862   191.4559 </r>
       <r>   -11.9804   110.1255   208.2925 </r>
       <r>   -11.8275    59.5376   217.3949 </r>
       <r>   -11.6747     3.9580   218.0000 </r>
       <r>   -11.5218     0.0000   218.0000 </r>
       <r>   -11.3689     0.0000   218.0000 </r>
       <r>   -11.2160     0.0000   218.0000 </r>
       <r>   -11.0631     0.0000   218.0000 </r>
       <r>   -10.9102     0.0000   218.0000 </r>
       <r>   -10.7573     0.0000   218.0000 </r>
       <r>   -10.6045     0.0000   218.0000 </r>
       <r>   -10.4516     0.0000   218.0000 </r>
       <r>   -10.2987     0.0000   218.0000 </r>
       <r>   -10.1458     0.0000   218.0000 </r>
       <r>    -9.9929     0.0000   218.0000 </r>
       <r>    -9.8400     0.0000   218.0000 </r>
       <r>    -9.6871     0.0000   218.0000 </r>
       <r>    -9.5343     0.0000   218.0000 </r>
       <r>    -9.3814     0.0000   218.0000 </r>
       <r>    -9.2285     0.0000   218.0000 </r>
       <r>    -9.0756     0.0000   218.0000 </r>
       <r>    -8.9227     0.0000   218.0000 </r>
       <r>    -8.7698     0.0000   218.0000 </r>
       <r>    -8.6169     0.0000   218.0000 </r>
       <r>    -8.4641     0.0000   218.0000 </r>
       <r>    -8.3112     0.0000   218.0000 </r>
       <r>    -8.1583     0.0000   218.0000 </r>
       <r>    -8.0054     0.0000   218.0000 </r>
       <r>    -7.8525     0.0000   218.0000 </r>
       <r>    -7.6996     0.0000   218.0000 </r>
       <r>    -7.5467     0.0000   218.0000 </r>
       <r>    -7.3939     0.0000   218.0000 </r>
       <r>    -7.2410     0.0000   218.0000 </r>
       <r>    -7.0881     0.0000   218.0000 </r>
       <r>    -6.9352     0.0000   218.0000 </r>
       <r>    -6.7823     0.0000   218.0000 </r>
       <r>    -6.6294     0.0000   218.0000 </r>
       <r>    -6.4766     0.0000   218.0000 </r>
       <r>    -6.3237     0.0000   218.0000 </r>
       <r>    -6.1708     0.0000   218.0000 </r>
       <r>    -6.0179     0.0000   218.0000 </r>
       <r>    -5.8650     0.0000   218.0000 </r>
       <r>    -5.7121     0.0000   218.0000 </r>
       <r>    -5.5592     0.0000   218.0000 </r>
       <r>    -5.4064     0.0000   218.0000 </r>
       <r>    -5.2535     0.0000   218.0000 </r>
       <r>    -5.1006     0.0000   218.0000 </r>
       <r>    -4.9477     0.0000   218.0000 </r>
       <r>    -4.7948     0.0000   218.0000 </r>
       <r>    -4.6419     0.0000   218.0000 </r>
       <r>    -4.4890     0.0000   218.0000 </r>
       <r>    -4.3362     0.0000   218.0000 </r>
       <r>    -4.1833     0.0000   218.0000 </r>
       <r>    -4.0304     0.0000   218.0000 </r>
       <r>    -3.8775     0.0000   218.0000 </r>
       <r>    -3.7246     0.0000   218.0000 </r>
       <r>    -3.5717     0.0000   218.0000 </r>
       <r>    -3.4188     0.0000   218.0000 </r>
       <r>    -3.2660     0.0000   218.0000 </r>
       <r>    -3.1131     0.0000   218.0000 </r>
       <r>    -2.9602     0.0000   218.0000 </r>
       <r>    -2.8073     0.0121   218.0019 </r>
       <r>    -2.6544     6.0337   218.9243 </r>
       <r>    -2.5015     7.7195   220.1045 </r>
       <r>    -2.3486    10.9719   221.7820 </r>
       <r>    -2.1958    10.6269   223.4067 </r>
       <r>    -2.0429    27.8748   227.6683 </r>
       <r>    -1.8900    37.2665   233.3658 </r>
       <r>    -1.7371    41.6569   239.7346 </r>
       <r>    -1.5842    40.4288   245.9155 </r>
       <r>    -1.4313    44.1342   252.6630 </r>
       <r>    -1.2784    61.3809   262.0473 </r>
       <r>    -1.1256    74.2127   273.3933 </r>
       <r>    -0.9727    76.1614   285.0373 </r>
       <r>    -0.8198    74.3356   296.4021 </r>
       <r>    -0.6669    86.2708   309.5916 </r>
       <r>    -0.5140   101.7218   325.1434 </r>
       <r>    -0.3611    91.1368   339.0769 </r>
       <r>    -0.2083    64.2572   348.9009 </r>
       <r>    -0.0554    52.7215   356.9613 </r>
       <r>     0.0975    49.7734   364.5709 </r>
       <r>     0.2504    54.7101   372.9353 </r>
       <r>     0.4033    52.0470   380.8925 </r>
       <r>     0.5562    56.3367   389.5055 </r>
       <r>     0.7091    55.0811   397.9266 </r>
       <r>     0.8619    47.6123   405.2059 </r>
       <r>     1.0148    54.7501   413.5763 </r>
       <r>     1.1677    67.8130   423.9440 </r>
       <r>     1.3206    87.5674   437.3317 </r>
       <r>     1.4735    82.1952   449.8982 </r>
       <r>     1.6264    86.4970   463.1223 </r>
       <r>     1.7793    71.5564   474.0622 </r>
       <r>     1.9321    44.1463   480.8116 </r>
       <r>     2.0850    40.7683   487.0444 </r>
       <r>     2.2379    20.3395   490.1541 </r>
       <r>     2.3908     5.5327   490.9999 </r>
       <r>     2.5437     0.0005   491.0000 </r>
       <r>     2.6966     0.0000   491.0000 </r>
       <r>     2.8495     0.0000   491.0000 </r>
       <r>     3.0023     0.0000   491.0000 </r>
       <r>     3.1552     0.0000   491.0000 </r>
       <r>     3.3081     0.0000   491.0000 </r>
       <r>     3.4610     0.0000   491.0000 </r>
       <r>     3.6139     0.0000   491.0000 </r>
       <r>     3.7668     0.0000   491.0000 </r>
       <r>     3.9197     0.0000   491.0000 </r>
       <r>     4.0725     0.1018   491.0156 </r>
       <r>     4.2254     6.3405   491.9849 </r>
       <r>     4.3783     2.3946   492.3510 </r>
       <r>     4.5312     8.8486   493.7039 </r>
       <r>     4.6841    48.8814   501.1771 </r>
       <r>     4.8370    45.8241   508.1829 </r>
       <r>     4.9899    35.0345   513.5392 </r>
       <r>     5.1427    66.8015   523.7522 </r>
       <r>     5.2956    70.4304   534.5200 </r>
       <r>     5.4485    73.7688   545.7981 </r>
       <r>     5.6014    65.9339   555.8785 </r>
       <r>     5.7543    62.1509   565.3804 </r>
       <r>     5.9072    76.4516   577.0687 </r>
       <r>     6.0601    90.7952   590.9500 </r>
       <r>     6.2129    81.1840   603.3619 </r>
       <r>     6.3658    43.0836   609.9487 </r>
       <r>     6.5187    13.2558   611.9753 </r>
       <r>     6.6716     9.3804   613.4095 </r>
       <r>     6.8245    20.0146   616.4694 </r>
       <r>     6.9774    19.4419   619.4418 </r>
       <r>     7.1302    16.3222   621.9372 </r>
       <r>     7.2831    12.0645   623.7817 </r>
       <r>     7.4360    13.8756   625.9031 </r>
       <r>     7.5889    17.1909   628.5313 </r>
       <r>     7.7418    17.9606   631.2772 </r>
       <r>     7.8947    23.3227   634.8429 </r>
       <r>     8.0476    22.2498   638.2446 </r>
       <r>     8.2004    25.1773   642.0938 </r>
       <r>     8.3533    27.1185   646.2398 </r>
       <r>     8.5062    29.8279   650.8001 </r>
       <r>     8.6591    20.1916   653.8871 </r>
       <r>     8.8120    22.9239   657.3918 </r>
       <r>     8.9649    32.4107   662.3469 </r>
       <r>     9.1178    41.6289   668.7114 </r>
       <r>     9.2706    34.5907   673.9998 </r>
       <r>     9.4235    39.7280   680.0736 </r>
       <r>     9.5764    41.1391   686.3632 </r>
       <r>     9.7293    51.3858   694.2193 </r>
       <r>     9.8822    59.3340   703.2906 </r>
       <r>    10.0351    62.7298   712.8811 </r>
       <r>    10.1880    55.9704   721.4381 </r>
       <r>    10.3408    57.3908   730.2124 </r>
       <r>    10.4937    55.9006   738.7588 </r>
       <r>    10.6466    65.3285   748.7465 </r>
       <r>    10.7995    50.5759   756.4789 </r>
       <r>    10.9524    52.2099   764.4610 </r>
       <r>    11.1053    23.1349   767.9980 </r>
       <r>    11.2582     0.0133   768.0000 </r>
       <r>    11.4110     0.0000   768.0000 </r>
       <r>    11.5639     0.0000   768.0000 </r>
       <r>    11.7168     0.0000   768.0000 </r>
       <r>    11.8697     0.0000   768.0000 </r>
       <r>    12.0226     0.0000   768.0000 </r>
       <r>    12.1755     0.0000   768.0000 </r>
       <r>    12.3284     0.0000   768.0000 </r>
       <r>    12.4812     0.0000   768.0000 </r>
       <r>    12.6341     0.0000   768.0000 </r>
       <r>    12.7870     0.0000   768.0000 </r>
       <r>    12.9399     0.0000   768.0000 </r>
       <r>    13.0928     0.0000   768.0000 </r>
      </set>
     </set>
    </array>
   </total>
  </dos>
 </calculation>
 <structure name="finalpos" >
  <crystal>
   <varray name="basis" >
    <v>      11.26395925       0.00931126      -0.00123266 </v>
    <v>       0.00921880      11.26850959       0.00196985 </v>
    <v>      -0.00175018       0.00272620      15.80980313 </v>
   </varray>
   <i name="volume">   2006.70576942 </i>
   <varray name="rec_basis" >
    <v>       0.08877879      -0.00007263       0.00000984 </v>
    <v>      -0.00007336       0.08874294      -0.00001531 </v>
    <v>       0.00000693      -0.00001106       0.06325190 </v>
   </varray>
  </crystal>
  <varray name="positions" >
   <v>       0.99953020       0.25500160       0.11576007 </v>
   <v>       0.99935831       0.25357482       0.62734884 </v>
   <v>       0.99752053       0.73777197       0.11846642 </v>
   <v>       0.00315265       0.74390700       0.62485272 </v>
   <v>       0.50022811       0.25520229       0.11569376 </v>
   <v>       0.49704249       0.23866347       0.62396862 </v>
   <v>       0.49798394       0.73906403       0.12039019 </v>
   <v>       0.49734499       0.76332697       0.61619024 </v>
   <v>       0.99894507       0.25578900       0.38519587 </v>
   <v>       0.99935700       0.25296813       0.87107894 </v>
   <v>       0.99723364       0.73795239       0.38233001 </v>
   <v>       0.00341533       0.74386392       0.87403069 </v>
   <v>       0.50036540       0.25289049       0.38559385 </v>
   <v>       0.49564777       0.24158892       0.87341775 </v>
   <v>       0.49802445       0.74166399       0.38079275 </v>
   <v>       0.49836857       0.76048552       0.88189392 </v>
   <v>       0.24982220       0.99498886       0.11673652 </v>
   <v>       0.25158743       0.00540780       0.62465126 </v>
   <v>       0.24566414       0.50830533       0.11836801 </v>
   <v>       0.23989267       0.49333701       0.62364564 </v>
   <v>       0.75038884       0.99569432       0.11578068 </v>
   <v>       0.74625419       0.00471482       0.62641053 </v>
   <v>       0.74974989       0.50914455       0.11960834 </v>
   <v>       0.75912615       0.49757701       0.62308221 </v>
   <v>       0.25490275       0.99677230       0.38437986 </v>
   <v>       0.24965029       0.00522790       0.87344756 </v>
   <v>       0.24538607       0.50826702       0.38214609 </v>
   <v>       0.24002466       0.49261571       0.87491259 </v>
   <v>       0.74527275       0.99651943       0.38556612 </v>
   <v>       0.74832617       0.00495047       0.87141864 </v>
   <v>       0.74990921       0.50904811       0.38162841 </v>
   <v>       0.75908688       0.49757981       0.87610436 </v>
   <v>       0.99880929       0.00162622       0.49936684 </v>
   <v>       0.24784551       0.24887869       0.99941849 </v>
   <v>       0.49920303       0.00181812       0.00219704 </v>
   <v>       0.74974190       0.24916174       0.99825318 </v>
   <v>       0.49933400       0.50053857       0.99593375 </v>
   <v>       0.24788287       0.74793586       0.99775959 </v>
   <v>       0.00010306       0.00599103       0.74878270 </v>
   <v>       0.75024945       0.74855542       0.99683709 </v>
   <v>       0.99916842       0.00151171       0.99921245 </v>
   <v>       0.75232895       0.74604854       0.25033194 </v>
   <v>       0.99891490       0.49741266       0.74993108 </v>
   <v>       0.25128446       0.74608330       0.25032037 </v>
   <v>       0.00162892       0.50240848       0.25002650 </v>
   <v>       0.74863813       0.24837124       0.50183139 </v>
   <v>       0.49894080       0.50069319       0.50445693 </v>
   <v>       0.74855958       0.75008027       0.50352277 </v>
   <v>       0.24891633       0.24820983       0.50046660 </v>
   <v>       0.24900635       0.74968236       0.50209956 </v>
   <v>       0.50029601       0.99720512       0.74880013 </v>
   <v>       0.50181110       0.50250330       0.25070969 </v>
   <v>       0.99856272       0.49947996       0.49989027 </v>
   <v>       0.50856485       0.96873724       0.24850479 </v>
   <v>       0.76527968       0.76297701       0.75008792 </v>
   <v>       0.24116970       0.76579527       0.74980976 </v>
   <v>       0.99852324       0.49889350       0.00018942 </v>
   <v>       0.75006807       0.25162846       0.74962135 </v>
   <v>       0.75739596       0.28087779       0.25015103 </v>
   <v>       0.24643643       0.24941765       0.74943345 </v>
   <v>       0.25977567       0.28131131       0.25017428 </v>
   <v>       0.49896809       0.00222745       0.49846206 </v>
   <v>       0.00818457       0.96720063       0.25066774 </v>
   <v>       0.50328211       0.46976132       0.74993385 </v>
   <v>       0.99307359       0.02577167       0.13859376 </v>
   <v>       0.00055401       0.99981741       0.62235036 </v>
   <v>       0.00002730       0.50610688       0.12594125 </v>
   <v>       0.99816152       0.49655063       0.62460874 </v>
   <v>       0.49408780       0.02680430       0.13609309 </v>
   <v>       0.49864566       0.99823420       0.62504390 </v>
   <v>       0.50052834       0.50191387       0.12335158 </v>
   <v>       0.49435708       0.51182717       0.63447430 </v>
   <v>       0.99121047       0.02539472       0.36258190 </v>
   <v>       0.00100310       0.00084640       0.87751666 </v>
   <v>       0.00003473       0.50542773       0.37352818 </v>
   <v>       0.99800845       0.49511305       0.87605474 </v>
   <v>       0.49228837       0.03242294       0.35687537 </v>
   <v>       0.49895942       0.99749624       0.87802154 </v>
   <v>       0.50091518       0.50319354       0.37635834 </v>
   <v>       0.49682622       0.51356137       0.86577464 </v>
   <v>       0.24463860       0.22387792       0.36179467 </v>
   <v>       0.24787220       0.24820427       0.87835766 </v>
   <v>       0.25214660       0.74397734       0.37458508 </v>
   <v>       0.25439908       0.75057672       0.87475005 </v>
   <v>       0.74071082       0.22352206       0.36176549 </v>
   <v>       0.75065645       0.25030640       0.87756642 </v>
   <v>       0.75080715       0.74412861       0.37489284 </v>
   <v>       0.73572170       0.74694096       0.87325019 </v>
   <v>       0.24730402       0.22214842       0.13850737 </v>
   <v>       0.24962679       0.24919596       0.62241445 </v>
   <v>       0.25101500       0.74474797       0.12497823 </v>
   <v>       0.25438207       0.74885019       0.62585844 </v>
   <v>       0.73920089       0.22191663       0.13863775 </v>
   <v>       0.75001382       0.25080225       0.62310103 </v>
   <v>       0.75094175       0.74459987       0.12444363 </v>
   <v>       0.73610177       0.74754473       0.62751001 </v>
   <v>       0.15111318       0.40604610       0.24932717 </v>
   <v>       0.41476430       0.34477392       0.25038534 </v>
   <v>       0.65137229       0.40820490       0.24985146 </v>
   <v>       0.91250183       0.34390567       0.24967578 </v>
   <v>       0.10432621       0.65016771       0.24996297 </v>
   <v>       0.35423350       0.59911477       0.24949499 </v>
   <v>       0.60322224       0.64928059       0.24976150 </v>
   <v>       0.85279571       0.59967678       0.24979810 </v>
   <v>       0.16375686       0.90509759       0.25083705 </v>
   <v>       0.40056475       0.84324463       0.24920580 </v>
   <v>       0.66320578       0.90401098       0.24945378 </v>
   <v>       0.90133159       0.84135817       0.24962437 </v>
   <v>       0.13229511       0.11471807       0.49863322 </v>
   <v>       0.38160495       0.13481810       0.49977297 </v>
   <v>       0.63210069       0.11763039       0.50105517 </v>
   <v>       0.88253156       0.13338689       0.49991312 </v>
   <v>       0.11989812       0.36525042       0.49551649 </v>
   <v>       0.36598442       0.38289631       0.49636315 </v>
   <v>       0.61399308       0.36702065       0.50178152 </v>
   <v>       0.86235629       0.37924538       0.49081134 </v>
   <v>       0.13283839       0.61967259       0.50211556 </v>
   <v>       0.38312936       0.63219540       0.50111918 </v>
   <v>       0.63047388       0.61618582       0.50172693 </v>
   <v>       0.87954541       0.63497423       0.50376613 </v>
   <v>       0.11459131       0.86859973       0.49299499 </v>
   <v>       0.36725219       0.88236837       0.49646837 </v>
   <v>       0.61549572       0.86825689       0.49115588 </v>
   <v>       0.86595184       0.88435635       0.49888061 </v>
   <v>       0.10875843       0.13941723       0.74965717 </v>
   <v>       0.36261888       0.10935102       0.75114514 </v>
   <v>       0.60913083       0.13921720       0.75093013 </v>
   <v>       0.86127814       0.10946441       0.74983290 </v>
   <v>       0.13177423       0.38461280       0.75006210 </v>
   <v>       0.37141490       0.37693846       0.75297947 </v>
   <v>       0.65130385       0.40699095       0.75008073 </v>
   <v>       0.88778139       0.36195454       0.75017006 </v>
   <v>       0.12462812       0.63187006       0.75083853 </v>
   <v>       0.86036774       0.61394230       0.75043105 </v>
   <v>       0.14157389       0.89863104       0.74968786 </v>
   <v>       0.39776649       0.84673938       0.75064847 </v>
   <v>       0.63887596       0.88692942       0.75090342 </v>
   <v>       0.89876500       0.86178908       0.75079949 </v>
   <v>       0.13399129       0.11342316       0.00192597 </v>
   <v>       0.38456533       0.13546537       0.99968846 </v>
   <v>       0.63325235       0.11441439       0.99903866 </v>
   <v>       0.88340769       0.13386944       0.00100576 </v>
   <v>       0.11954067       0.36413991       0.00563966 </v>
   <v>       0.36542280       0.38308468       0.00310787 </v>
   <v>       0.61296064       0.36479850       0.99831116 </v>
   <v>       0.86149149       0.37944224       0.01007022 </v>
   <v>       0.13397326       0.61846704       0.99726612 </v>
   <v>       0.38419271       0.63357844       0.99877316 </v>
   <v>       0.63167252       0.61508100       0.99902271 </v>
   <v>       0.88072637       0.63547521       0.99595574 </v>
   <v>       0.11406603       0.86778541       0.00689491 </v>
   <v>       0.36732626       0.88500019       0.00426407 </v>
   <v>       0.61329728       0.86792082       0.00898638 </v>
   <v>       0.86518802       0.88503830       0.00077253 </v>
  </varray>
 </structure>
</modeling>
