       N       E                     dE             d eps       ncg     rms          rms(c)
DAV:   1     0.127407802431E+05    0.12741E+05   -0.44135E+05  3072   0.138E+03
DAV:   2     0.993112729880E+03   -0.11748E+05   -0.10528E+05  3112   0.403E+02
DAV:   3    -0.118137776490E+04   -0.21745E+04   -0.20640E+04  3344   0.181E+02
DAV:   4    -0.137142666415E+04   -0.19005E+03   -0.18729E+03  4280   0.575E+01
DAV:   5    -0.138135360102E+04   -0.99269E+01   -0.98859E+01  5536   0.119E+01    0.172E+02
RMM:   6    -0.106217047021E+04    0.31918E+03   -0.17759E+03  3441   0.443E+01    0.200E+02
RMM:   7    -0.104131185302E+04    0.20859E+02   -0.74219E+01  3269   0.138E+01    0.101E+02
RMM:   8    -0.103917309541E+04    0.21388E+01   -0.29381E+01  3370   0.581E+00    0.696E+01
RMM:   9    -0.104368407716E+04   -0.45110E+01   -0.15145E+01  3151   0.462E+00    0.234E+01
RMM:  10    -0.104363780183E+04    0.46275E-01   -0.27617E+00  3337   0.207E+00    0.107E+01
RMM:  11    -0.104426044904E+04   -0.62265E+00   -0.96833E-01  3576   0.113E+00    0.529E+00
RMM:  12    -0.104498114426E+04   -0.72070E+00   -0.76682E-01  3346   0.788E-01    0.321E+00
RMM:  13    -0.104533878248E+04   -0.35764E+00   -0.30205E-01  3433   0.551E-01    0.150E+00
RMM:  14    -0.104543266748E+04   -0.93885E-01   -0.11417E-01  3573   0.295E-01    0.111E+00
RMM:  15    -0.104547110674E+04   -0.38439E-01   -0.58634E-02  3508   0.223E-01    0.469E-01
RMM:  16    -0.104547993433E+04   -0.88276E-02   -0.26480E-02  3728   0.142E-01    0.343E-01
RMM:  17    -0.104548008780E+04   -0.15347E-03   -0.49853E-03  3664   0.620E-02    0.173E-01
RMM:  18    -0.104548029617E+04   -0.20837E-03   -0.17653E-03  3305   0.314E-02    0.890E-02
RMM:  19    -0.104548038689E+04   -0.90719E-04   -0.68177E-04  2539   0.200E-02
   1 F= -.10454804E+04 E0= -.10454804E+04  d E =-.104548E+04  mag=    80.0051
       N       E                     dE             d eps       ncg     rms          rms(c)
DAV:   1    -0.902020745997E+03    0.14346E+03   -0.29539E+03  3384   0.589E+01    0.511E+01
RMM:   2    -0.104924721783E+04   -0.14723E+03   -0.21672E+02  3250   0.174E+01    0.849E+01
RMM:   3    -0.105267968729E+04   -0.34325E+01   -0.14803E+01  3227   0.563E+00    0.278E+01
RMM:   4    -0.105233900860E+04    0.34068E+00   -0.91635E+00  3218   0.362E+00    0.903E+00
RMM:   5    -0.105223534908E+04    0.10366E+00   -0.12966E+00  3441   0.126E+00    0.888E+00
RMM:   6    -0.105220478183E+04    0.30567E-01   -0.38098E-01  3538   0.642E-01    0.515E+00
RMM:   7    -0.105222977165E+04   -0.24990E-01   -0.16636E-01  3911   0.419E-01    0.299E+00
RMM:   8    -0.105223076034E+04   -0.98869E-03   -0.30077E-02  4178   0.177E-01    0.112E+00
RMM:   9    -0.105222697957E+04    0.37808E-02   -0.18371E-02  3741   0.134E-01    0.740E-01
RMM:  10    -0.105222707843E+04   -0.98860E-04   -0.34163E-03  3679   0.628E-02    0.299E-01
RMM:  11    -0.105222698443E+04    0.94003E-04   -0.13675E-03  3630   0.323E-02    0.119E-01
RMM:  12    -0.105222700763E+04   -0.23202E-04   -0.50957E-04  2783   0.208E-02
   2 F= -.10522270E+04 E0= -.10522270E+04  d E =-.674662E+01  mag=    80.0001
       N       E                     dE             d eps       ncg     rms          rms(c)
DAV:   1    -0.105210584670E+04    0.12114E+00   -0.18725E+01  3512   0.450E+00    0.427E+00
RMM:   2    -0.105226287962E+04   -0.15703E+00   -0.46478E-01  3172   0.885E-01    0.248E+00
RMM:   3    -0.105229095853E+04   -0.28079E-01   -0.30814E-02  3171   0.297E-01    0.163E+00
RMM:   4    -0.105228795713E+04    0.30014E-02   -0.93166E-03  3211   0.119E-01    0.956E-01
RMM:   5    -0.105228760137E+04    0.35576E-03   -0.84785E-03  3314   0.106E-01    0.319E-01
RMM:   6    -0.105228748366E+04    0.11772E-03   -0.11350E-03  2783   0.401E-02    0.302E-01
RMM:   7    -0.105228747321E+04    0.10449E-04   -0.31019E-04  2249   0.239E-02    0.905E-02
RMM:   8    -0.105228745816E+04    0.15048E-04   -0.72199E-05  1892   0.131E-02
   3 F= -.10522875E+04 E0= -.10522875E+04  d E =-.680707E+01  mag=    80.0000
       N       E                     dE             d eps       ncg     rms          rms(c)
DAV:   1    -0.105583830262E+04   -0.35508E+01   -0.39135E+02  3168   0.246E+01    0.162E+01
RMM:   2    -0.105416162317E+04    0.16767E+01   -0.15092E+01  3170   0.496E+00    0.142E+01
RMM:   3    -0.105361697410E+04    0.54465E+00   -0.11907E+00  3278   0.184E+00    0.602E+00
RMM:   4    -0.105340854413E+04    0.20843E+00   -0.59540E-01  3288   0.853E-01    0.389E+00
RMM:   5    -0.105338047683E+04    0.28067E-01   -0.17474E-01  3452   0.478E-01    0.206E+00
RMM:   6    -0.105338257587E+04   -0.20990E-02   -0.55773E-02  4054   0.241E-01    0.103E+00
RMM:   7    -0.105338472795E+04   -0.21521E-02   -0.17199E-02  4288   0.105E-01    0.457E-01
RMM:   8    -0.105338498129E+04   -0.25334E-03   -0.43332E-03  4313   0.562E-02    0.194E-01
RMM:   9    -0.105338498795E+04   -0.66637E-05   -0.13486E-03  3480   0.304E-02    0.964E-02
RMM:  10    -0.105338494978E+04    0.38171E-04   -0.57699E-04  2934   0.210E-02
   4 F= -.10533849E+04 E0= -.10533849E+04  d E =-.109749E+01  mag=    80.0000
       N       E                     dE             d eps       ncg     rms          rms(c)
DAV:   1    -0.105357311790E+04   -0.18813E+00   -0.23103E+01  3416   0.594E+00    0.386E+00
RMM:   2    -0.105347136855E+04    0.10175E+00   -0.92902E-01  3163   0.119E+00    0.316E+00
RMM:   3    -0.105343692505E+04    0.34444E-01   -0.74946E-02  3238   0.467E-01    0.135E+00
RMM:   4    -0.105342544638E+04    0.11479E-01   -0.37182E-02  3322   0.206E-01    0.830E-01
RMM:   5    -0.105342428417E+04    0.11622E-02   -0.95645E-03  3541   0.114E-01    0.444E-01
RMM:   6    -0.105342437842E+04   -0.94253E-04   -0.28887E-03  4021   0.521E-02    0.250E-01
RMM:   7    -0.105342446103E+04   -0.82606E-04   -0.11572E-03  3442   0.279E-02    0.929E-02
RMM:   8    -0.105342442919E+04    0.31838E-04   -0.25281E-04  2311   0.157E-02
   5 F= -.10534244E+04 E0= -.10534244E+04  d E =-.113697E+01  mag=    80.0000
       N       E                     dE             d eps       ncg     rms          rms(c)
DAV:   1    -0.105412170821E+04   -0.69725E+00   -0.26529E+02  3072   0.193E+01    0.907E+00
RMM:   2    -0.105413053907E+04   -0.88309E-02   -0.79336E+00  3153   0.359E+00    0.631E+00
RMM:   3    -0.105399190124E+04    0.13864E+00   -0.52108E-01  3200   0.133E+00    0.330E+00
RMM:   4    -0.105391924607E+04    0.72655E-01   -0.17464E-01  3269   0.511E-01    0.208E+00
RMM:   5    -0.105390436918E+04    0.14877E-01   -0.54986E-02  3375   0.318E-01    0.148E+00
RMM:   6    -0.105390485324E+04   -0.48406E-03   -0.13872E-02  4122   0.117E-01    0.622E-01
RMM:   7    -0.105390536598E+04   -0.51274E-03   -0.49473E-03  3956   0.721E-02    0.406E-01
RMM:   8    -0.105390573675E+04   -0.37077E-03   -0.18778E-03  4023   0.405E-02    0.115E-01
RMM:   9    -0.105390578025E+04   -0.43504E-04   -0.60224E-04  2787   0.209E-02
   6 F= -.10539058E+04 E0= -.10539058E+04  d E =-.481351E+00  mag=    80.0000
       N       E                     dE             d eps       ncg     rms          rms(c)
DAV:   1    -0.105394336721E+04   -0.37630E-01   -0.18939E+01  3416   0.517E+00    0.244E+00
RMM:   2    -0.105394329165E+04    0.75554E-04   -0.53425E-01  3140   0.948E-01    0.179E+00
RMM:   3    -0.105393462166E+04    0.86700E-02   -0.36047E-02  3231   0.347E-01    0.930E-01
RMM:   4    -0.105392937516E+04    0.52465E-02   -0.12461E-02  3316   0.135E-01    0.625E-01
RMM:   5    -0.105392825287E+04    0.11223E-02   -0.39766E-03  3434   0.803E-02    0.349E-01
RMM:   6    -0.105392829694E+04   -0.44079E-04   -0.12745E-03  3534   0.353E-02    0.157E-01
RMM:   7    -0.105392836845E+04   -0.71502E-04   -0.34098E-04  2528   0.222E-02    0.108E-01
RMM:   8    -0.105392842009E+04   -0.51647E-04   -0.15165E-04  1992   0.144E-02
   7 F= -.10539284E+04 E0= -.10539284E+04  d E =-.503991E+00  mag=    80.0000
       N       E                     dE             d eps       ncg     rms          rms(c)
DAV:   1    -0.105389629879E+04    0.32070E-01   -0.45472E+01  3104   0.769E+00    0.347E+00
RMM:   2    -0.105403195034E+04   -0.13565E+00   -0.10692E+00  3204   0.137E+00    0.218E+00
RMM:   3    -0.105404389651E+04   -0.11946E-01   -0.57083E-02  3262   0.394E-01    0.112E+00
RMM:   4    -0.105403510527E+04    0.87912E-02   -0.16291E-02  3349   0.156E-01    0.539E-01
RMM:   5    -0.105403303458E+04    0.20707E-02   -0.76242E-03  3287   0.103E-01    0.337E-01
RMM:   6    -0.105403302399E+04    0.10592E-04   -0.10731E-03  3033   0.442E-02    0.166E-01
RMM:   7    -0.105403305360E+04   -0.29613E-04   -0.22891E-04  2229   0.154E-02    0.731E-02
RMM:   8    -0.105403308044E+04   -0.26839E-04   -0.10357E-04  1969   0.118E-02
   8 F= -.10540331E+04 E0= -.10540331E+04  d E =-.104660E+00  mag=    80.0000
       N       E                     dE             d eps       ncg     rms          rms(c)
DAV:   1    -0.105397228330E+04    0.60770E-01   -0.28304E+01  3120   0.607E+00    0.273E+00
RMM:   2    -0.105405692619E+04   -0.84643E-01   -0.66533E-01  3207   0.108E+00    0.171E+00
RMM:   3    -0.105406420251E+04   -0.72763E-02   -0.35599E-02  3280   0.310E-01    0.881E-01
RMM:   4    -0.105405869842E+04    0.55041E-02   -0.10484E-02  3326   0.125E-01    0.420E-01
RMM:   5    -0.105405749669E+04    0.12017E-02   -0.47100E-03  3293   0.819E-02    0.285E-01
RMM:   6    -0.105405748258E+04    0.14112E-04   -0.66115E-04  2784   0.348E-02    0.124E-01
RMM:   7    -0.105405750193E+04   -0.19349E-04   -0.15068E-04  2064   0.136E-02    0.567E-02
RMM:   8    -0.105405752173E+04   -0.19795E-04   -0.75429E-05  1914   0.103E-02
   9 F= -.10540575E+04 E0= -.10540575E+04  d E =-.129102E+00  mag=    79.9999
       N       E                     dE             d eps       ncg     rms          rms(c)
DAV:   1    -0.105407928222E+04   -0.21780E-01   -0.39014E+01  3104   0.727E+00    0.254E+00
RMM:   2    -0.105411936868E+04   -0.40086E-01   -0.95558E-01  3169   0.133E+00    0.183E+00
RMM:   3    -0.105411095223E+04    0.84165E-02   -0.63689E-02  3355   0.402E-01    0.154E+00
RMM:   4    -0.105410406330E+04    0.68889E-02   -0.11685E-02  3552   0.128E-01    0.881E-01
RMM:   5    -0.105410077111E+04    0.32922E-02   -0.72523E-03  3254   0.923E-02    0.265E-01
RMM:   6    -0.105410092999E+04   -0.15888E-03   -0.11792E-03  3275   0.445E-02    0.155E-01
RMM:   7    -0.105410093741E+04   -0.74182E-05   -0.32315E-04  2365   0.188E-02    0.877E-02
RMM:   8    -0.105410093394E+04    0.34730E-05   -0.14250E-04  2013   0.149E-02
  10 F= -.10541009E+04 E0= -.10541009E+04  d E =-.434122E-01  mag=    80.0000
       N       E                     dE             d eps       ncg     rms          rms(c)
DAV:   1    -0.105410094620E+04   -0.87912E-05   -0.41548E-03  3440   0.756E-02    0.322E-02
RMM:   2    -0.105410095263E+04   -0.64272E-05   -0.12370E-04  1816   0.155E-02    0.237E-02
RMM:   3    -0.105410095368E+04   -0.10483E-05   -0.25299E-05  1716   0.763E-03    0.157E-02
RMM:   4    -0.105410095336E+04    0.32030E-06   -0.15836E-05  1471   0.455E-03    0.912E-03
RMM:   5    -0.105410095237E+04    0.98866E-06   -0.91595E-06  1410   0.412E-03    0.457E-03
RMM:   6    -0.105410095275E+04   -0.38522E-06   -0.71314E-06  1069   0.296E-03    0.270E-03
RMM:   7    -0.105410095279E+04   -0.35187E-07   -0.41596E-06   930   0.285E-03    0.162E-03
RMM:   8    -0.105410095264E+04    0.15016E-06   -0.28352E-06   816   0.236E-03
  11 F= -.10541010E+04 E0= -.10541010E+04  d E =-.434309E-01  mag=    80.0000
       N       E                     dE             d eps       ncg     rms          rms(c)
DAV:   1    -0.105408421565E+04    0.16737E-01   -0.24558E+01  3112   0.535E+00    0.122E+00
RMM:   2    -0.105413895672E+04   -0.54741E-01   -0.56542E-01  3214   0.897E-01    0.850E-01
RMM:   3    -0.105413826662E+04    0.69009E-03   -0.26187E-02  3300   0.258E-01    0.513E-01
RMM:   4    -0.105413717891E+04    0.10877E-02   -0.58621E-03  3374   0.822E-02    0.280E-01
RMM:   5    -0.105413709876E+04    0.80149E-04   -0.14433E-03  3160   0.380E-02    0.782E-02
RMM:   6    -0.105413714791E+04   -0.49145E-04   -0.32752E-04  2292   0.158E-02    0.474E-02
RMM:   7    -0.105413716278E+04   -0.14877E-04   -0.16220E-04  2093   0.103E-02    0.247E-02
RMM:   8    -0.105413716862E+04   -0.58420E-05   -0.95596E-05  1957   0.831E-03
  12 F= -.10541372E+04 E0= -.10541372E+04  d E =-.362160E-01  mag=    80.0000
       N       E                     dE             d eps       ncg     rms          rms(c)
DAV:   1    -0.105405384725E+04    0.83316E-01   -0.51893E+01  3072   0.778E+00    0.176E+00
RMM:   2    -0.105417034813E+04   -0.11650E+00   -0.12024E+00  3214   0.131E+00    0.123E+00
RMM:   3    -0.105416891253E+04    0.14356E-02   -0.56196E-02  3357   0.378E-01    0.743E-01
RMM:   4    -0.105416658188E+04    0.23306E-02   -0.12763E-02  3440   0.122E-01    0.386E-01
RMM:   5    -0.105416645183E+04    0.13005E-03   -0.32218E-03  3333   0.556E-02    0.118E-01
RMM:   6    -0.105416655334E+04   -0.10152E-03   -0.77963E-04  2709   0.222E-02    0.727E-02
RMM:   7    -0.105416658447E+04   -0.31126E-04   -0.36438E-04  2234   0.135E-02    0.352E-02
RMM:   8    -0.105416659790E+04   -0.13427E-04   -0.21607E-04  2130   0.108E-02
  13 F= -.10541666E+04 E0= -.10541666E+04  d E =-.656453E-01  mag=    80.0000
       N       E                     dE             d eps       ncg     rms          rms(c)
DAV:   1    -0.105414383521E+04    0.22749E-01   -0.12805E+01  3112   0.386E+00    0.869E-01
RMM:   2    -0.105417254858E+04   -0.28713E-01   -0.29633E-01  3213   0.647E-01    0.602E-01
RMM:   3    -0.105417215801E+04    0.39057E-03   -0.13997E-02  3306   0.187E-01    0.367E-01
RMM:   4    -0.105417162034E+04    0.53767E-03   -0.31706E-03  3303   0.594E-02    0.209E-01
RMM:   5    -0.105417159435E+04    0.25990E-04   -0.86066E-04  2998   0.284E-02    0.541E-02
RMM:   6    -0.105417162504E+04   -0.30696E-04   -0.21518E-04  2150   0.131E-02    0.305E-02
RMM:   7    -0.105417163514E+04   -0.10096E-04   -0.11224E-04  2009   0.875E-03    0.135E-02
RMM:   8    -0.105417163964E+04   -0.45039E-05   -0.69217E-05  1784   0.693E-03
  14 F= -.10541716E+04 E0= -.10541716E+04  d E =-.706870E-01  mag=    80.0000
       N       E                     dE             d eps       ncg     rms          rms(c)
DAV:   1    -0.105417950845E+04   -0.78733E-02   -0.42045E+00  3144   0.221E+00    0.511E-01
RMM:   2    -0.105418880830E+04   -0.92999E-02   -0.97482E-02  3178   0.373E-01    0.358E-01
RMM:   3    -0.105418866990E+04    0.13841E-03   -0.45691E-03  3222   0.107E-01    0.240E-01
RMM:   4    -0.105418850852E+04    0.16138E-03   -0.86879E-04  2987   0.314E-02    0.123E-01
RMM:   5    -0.105418848387E+04    0.24645E-04   -0.44632E-04  2593   0.209E-02    0.488E-02
RMM:   6    -0.105418848999E+04   -0.61129E-05   -0.85224E-05  1844   0.113E-02    0.305E-02
RMM:   7    -0.105418849352E+04   -0.35337E-05   -0.40091E-05  1668   0.590E-03    0.123E-02
RMM:   8    -0.105418849491E+04   -0.13917E-05   -0.26869E-05  1618   0.546E-03
  15 F= -.10541885E+04 E0= -.10541885E+04  d E =-.168553E-01  mag=    80.0000
       N       E                     dE             d eps       ncg     rms          rms(c)
DAV:   1    -0.105415078086E+04    0.37713E-01   -0.37828E+01  3080   0.662E+00    0.155E+00
RMM:   2    -0.105423438702E+04   -0.83606E-01   -0.87603E-01  3212   0.112E+00    0.111E+00
RMM:   3    -0.105423338356E+04    0.10035E-02   -0.40458E-02  3333   0.320E-01    0.728E-01
RMM:   4    -0.105423184606E+04    0.15375E-02   -0.73475E-03  3517   0.926E-02    0.367E-01
RMM:   5    -0.105423154424E+04    0.30182E-03   -0.37999E-03  3276   0.595E-02    0.153E-01
RMM:   6    -0.105423158937E+04   -0.45129E-04   -0.65515E-04  2649   0.263E-02    0.629E-02
RMM:   7    -0.105423161437E+04   -0.25001E-04   -0.24347E-04  2194   0.114E-02    0.400E-02
RMM:   8    -0.105423162124E+04   -0.68756E-05   -0.16293E-04  2118   0.103E-02
  16 F= -.10542316E+04 E0= -.10542316E+04  d E =-.599816E-01  mag=    80.0000
       N       E                     dE             d eps       ncg     rms          rms(c)
DAV:   1    -0.105395705960E+04    0.27455E+00   -0.15129E+02  3080   0.132E+01    0.316E+00
RMM:   2    -0.105429539416E+04   -0.33833E+00   -0.35442E+00  3210   0.225E+00    0.235E+00
RMM:   3    -0.105429213821E+04    0.32559E-02   -0.16676E-01  3386   0.656E-01    0.145E+00
RMM:   4    -0.105428567001E+04    0.64682E-02   -0.30703E-02  3595   0.190E-01    0.725E-01
RMM:   5    -0.105428430861E+04    0.13614E-02   -0.16104E-02  3379   0.125E-01    0.363E-01
RMM:   6    -0.105428448200E+04   -0.17338E-03   -0.28816E-03  3316   0.536E-02    0.118E-01
RMM:   7    -0.105428459679E+04   -0.11480E-03   -0.11597E-03  2687   0.218E-02    0.903E-02
RMM:   8    -0.105428462525E+04   -0.28460E-04   -0.57113E-04  2522   0.174E-02
  17 F= -.10542846E+04 E0= -.10542846E+04  d E =-.112986E+00  mag=    80.0000
       N       E                     dE             d eps       ncg     rms          rms(c)
DAV:   1    -0.105421396637E+04    0.70630E-01   -0.35399E+01  3080   0.641E+00    0.146E+00
RMM:   2    -0.105429266825E+04   -0.78702E-01   -0.82348E-01  3211   0.108E+00    0.105E+00
RMM:   3    -0.105429177964E+04    0.88860E-03   -0.39006E-02  3344   0.314E-01    0.677E-01
RMM:   4    -0.105429041863E+04    0.13610E-02   -0.72043E-03  3529   0.905E-02    0.345E-01
RMM:   5    -0.105429016237E+04    0.25627E-03   -0.37440E-03  3280   0.577E-02    0.143E-01
RMM:   6    -0.105429022102E+04   -0.58649E-04   -0.73489E-04  2624   0.259E-02    0.592E-02
RMM:   7    -0.105429025067E+04   -0.29650E-04   -0.28895E-04  2228   0.116E-02    0.375E-02
RMM:   8    -0.105429026011E+04   -0.94390E-05   -0.18960E-04  2160   0.105E-02
  18 F= -.10542903E+04 E0= -.10542903E+04  d E =-.118620E+00  mag=    80.0000
       N       E                     dE             d eps       ncg     rms          rms(c)
DAV:   1    -0.105428911408E+04    0.11366E-02   -0.53000E-01  3256   0.783E-01    0.176E-01
RMM:   2    -0.105429023341E+04   -0.11193E-02   -0.11742E-02  3104   0.132E-01    0.122E-01
RMM:   3    -0.105429022693E+04    0.64788E-05   -0.48773E-04  2244   0.377E-02    0.811E-02
RMM:   4    -0.105429020805E+04    0.18878E-04   -0.79713E-05  1769   0.127E-02    0.425E-02
RMM:   5    -0.105429020474E+04    0.33133E-05   -0.45438E-05  1693   0.858E-03    0.145E-02
RMM:   6    -0.105429020590E+04   -0.11610E-05   -0.92231E-06  1524   0.496E-03    0.892E-03
RMM:   7    -0.105429020625E+04   -0.34696E-06   -0.37574E-06  1033   0.258E-03    0.455E-03
RMM:   8    -0.105429020619E+04    0.57422E-07   -0.19128E-06   905   0.232E-03
  19 F= -.10542902E+04 E0= -.10542902E+04  d E =-.118567E+00  mag=    80.0000
       N       E                     dE             d eps       ncg     rms          rms(c)
DAV:   1    -0.105428999667E+04    0.20958E-03   -0.13710E-01  3112   0.398E-01    0.886E-02
RMM:   2    -0.105429029366E+04   -0.29699E-03   -0.31078E-03  2933   0.670E-02    0.616E-02
RMM:   3    -0.105429028878E+04    0.48758E-05   -0.12008E-04  1787   0.200E-02    0.424E-02
RMM:   4    -0.105429028506E+04    0.37250E-05   -0.27692E-05  1646   0.742E-03    0.223E-02
RMM:   5    -0.105429028445E+04    0.60390E-06   -0.14533E-05  1554   0.488E-03    0.935E-03
RMM:   6    -0.105429028497E+04   -0.51485E-06   -0.42431E-06  1148   0.322E-03    0.346E-03
RMM:   7    -0.105429028520E+04   -0.23615E-06   -0.20307E-06   827   0.222E-03    0.239E-03
RMM:   8    -0.105429028530E+04   -0.91983E-07   -0.10497E-06   656   0.205E-03
  20 F= -.10542903E+04 E0= -.10542903E+04  d E =-.118646E+00  mag=    80.0000
       N       E                     dE             d eps       ncg     rms          rms(c)
DAV:   1    -0.105427838004E+04    0.11905E-01   -0.79950E+00  3104   0.311E+00    0.813E-01
RMM:   2    -0.105429731644E+04   -0.18936E-01   -0.18782E-01  3222   0.532E-01    0.565E-01
RMM:   3    -0.105429736502E+04   -0.48578E-04   -0.89209E-03  3374   0.151E-01    0.336E-01
RMM:   4    -0.105429686122E+04    0.50380E-03   -0.20422E-03  3336   0.516E-02    0.158E-01
RMM:   5    -0.105429684432E+04    0.16897E-04   -0.60997E-04  2873   0.281E-02    0.539E-02
RMM:   6    -0.105429685437E+04   -0.10050E-04   -0.11267E-04  1963   0.134E-02    0.529E-02
RMM:   7    -0.105429686390E+04   -0.95257E-05   -0.59382E-05  1808   0.758E-03    0.250E-02
RMM:   8    -0.105429687033E+04   -0.64309E-05   -0.32708E-05  1737   0.644E-03
  21 F= -.10542969E+04 E0= -.10542969E+04  d E =-.658503E-02  mag=    80.0000
       N       E                     dE             d eps       ncg     rms          rms(c)
DAV:   1    -0.105427105490E+04    0.25809E-01   -0.12450E+01  3088   0.388E+00    0.102E+00
RMM:   2    -0.105430058506E+04   -0.29530E-01   -0.29327E-01  3219   0.664E-01    0.707E-01
RMM:   3    -0.105430064074E+04   -0.55678E-04   -0.14014E-02  3425   0.190E-01    0.419E-01
RMM:   4    -0.105429986009E+04    0.78065E-03   -0.32509E-03  3466   0.644E-02    0.196E-01
RMM:   5    -0.105429984066E+04    0.19428E-04   -0.97425E-04  3100   0.341E-02    0.667E-02
RMM:   6    -0.105429985794E+04   -0.17281E-04   -0.19373E-04  2084   0.154E-02    0.635E-02
RMM:   7    -0.105429987295E+04   -0.15012E-04   -0.10088E-04  1950   0.892E-03    0.301E-02
RMM:   8    -0.105429988194E+04   -0.89896E-05   -0.58820E-05  1877   0.760E-03
  22 F= -.10542999E+04 E0= -.10542999E+04  d E =-.959664E-02  mag=    80.0000
       N       E                     dE             d eps       ncg     rms          rms(c)
DAV:   1    -0.105429946891E+04    0.40404E-03   -0.23009E-01  3168   0.527E-01    0.138E-01
RMM:   2    -0.105429999713E+04   -0.52822E-03   -0.52759E-03  3100   0.911E-02    0.952E-02
RMM:   3    -0.105430000008E+04   -0.29512E-05   -0.21344E-04  1970   0.262E-02    0.578E-02
RMM:   4    -0.105429998439E+04    0.15687E-04   -0.52575E-05  1742   0.108E-02    0.263E-02
RMM:   5    -0.105429998277E+04    0.16251E-05   -0.18368E-05  1709   0.634E-03    0.918E-03
RMM:   6    -0.105429998276E+04    0.82655E-08   -0.47339E-06  1437   0.366E-03    0.782E-03
RMM:   7    -0.105429998258E+04    0.18044E-06   -0.14970E-06   876   0.211E-03    0.391E-03
RMM:   8    -0.105429998193E+04    0.64886E-06   -0.64361E-07   614   0.193E-03
  23 F= -.10543000E+04 E0= -.10543000E+04  d E =-.969663E-02  mag=    80.0000
       N       E                     dE             d eps       ncg     rms          rms(c)
DAV:   1    -0.105429990740E+04    0.75174E-04   -0.37358E-02  3168   0.212E-01    0.556E-02
RMM:   2    -0.105429999410E+04   -0.86694E-04   -0.84139E-04  2571   0.363E-02    0.389E-02
RMM:   3    -0.105429999553E+04   -0.14313E-05   -0.37665E-05  1673   0.120E-02    0.231E-02
RMM:   4    -0.105429999460E+04    0.92672E-06   -0.12341E-05  1590   0.500E-03    0.123E-02
RMM:   5    -0.105429999511E+04   -0.50466E-06   -0.30581E-06  1192   0.300E-03    0.861E-03
RMM:   6    -0.105429999551E+04   -0.40254E-06   -0.11527E-06   695   0.215E-03    0.213E-03
RMM:   7    -0.105429999575E+04   -0.23877E-06   -0.43324E-07   496   0.197E-03    0.117E-03
RMM:   8    -0.105429999590E+04   -0.15371E-06   -0.16052E-07   389   0.184E-03
  24 F= -.10543000E+04 E0= -.10543000E+04  d E =-.971061E-02  mag=    80.0000
       N       E                     dE             d eps       ncg     rms          rms(c)
DAV:   1    -0.105430023445E+04   -0.23870E-03   -0.16226E+00  3120   0.145E+00    0.548E-01
RMM:   2    -0.105430247956E+04   -0.22451E-02   -0.43423E-02  3241   0.265E-01    0.345E-01
RMM:   3    -0.105430230855E+04    0.17101E-03   -0.25928E-03  3276   0.838E-02    0.263E-01
RMM:   4    -0.105430216246E+04    0.14609E-03   -0.52923E-04  2772   0.283E-02    0.162E-01
RMM:   5    -0.105430210353E+04    0.58921E-04   -0.22392E-04  2070   0.205E-02    0.568E-02
RMM:   6    -0.105430209969E+04    0.38406E-05   -0.10289E-04  1798   0.149E-02    0.821E-02
RMM:   7    -0.105430210083E+04   -0.11338E-05   -0.40876E-05  1741   0.102E-02    0.256E-02
RMM:   8    -0.105430209446E+04    0.63639E-05   -0.26283E-05  1608   0.735E-03
  25 F= -.10543021E+04 E0= -.10543021E+04  d E =-.209856E-02  mag=    80.0000
       N       E                     dE             d eps       ncg     rms          rms(c)
DAV:   1    -0.105429962581E+04    0.24750E-02   -0.27994E+00  3120   0.190E+00    0.718E-01
RMM:   2    -0.105430356189E+04   -0.39361E-02   -0.74901E-02  3236   0.348E-01    0.453E-01
RMM:   3    -0.105430328971E+04    0.27218E-03   -0.45200E-03  3336   0.110E-01    0.344E-01
RMM:   4    -0.105430304506E+04    0.24465E-03   -0.96680E-04  3269   0.368E-02    0.210E-01
RMM:   5    -0.105430295455E+04    0.90518E-04   -0.38836E-04  2505   0.250E-02    0.783E-02
RMM:   6    -0.105430294801E+04    0.65404E-05   -0.15710E-04  1903   0.171E-02    0.887E-02
RMM:   7    -0.105430295044E+04   -0.24385E-05   -0.62596E-05  1802   0.117E-02    0.356E-02
RMM:   8    -0.105430294232E+04    0.81230E-05   -0.42547E-05  1768   0.923E-03
  26 F= -.10543029E+04 E0= -.10543029E+04  d E =-.294642E-02  mag=    80.0000
       N       E                     dE             d eps       ncg     rms          rms(c)
DAV:   1    -0.105430269812E+04    0.25233E-03   -0.35935E-01  3216   0.678E-01    0.262E-01
RMM:   2    -0.105430313477E+04   -0.43665E-03   -0.95471E-03  3211   0.124E-01    0.161E-01
RMM:   3    -0.105430307265E+04    0.62120E-04   -0.52055E-04  2548   0.396E-02    0.128E-01
RMM:   4    -0.105430304375E+04    0.28896E-04   -0.12401E-04  1699   0.151E-02    0.794E-02
RMM:   5    -0.105430303824E+04    0.55129E-05   -0.53174E-05  1630   0.102E-02    0.457E-02
RMM:   6    -0.105430304509E+04   -0.68442E-05   -0.29438E-05  1606   0.710E-03    0.139E-02
RMM:   7    -0.105430305008E+04   -0.49919E-05   -0.14543E-05  1416   0.535E-03    0.149E-02
RMM:   8    -0.105430305322E+04   -0.31437E-05   -0.91997E-06  1112   0.372E-03
  27 F= -.10543031E+04 E0= -.10543031E+04  d E =-.305732E-02  mag=    80.0000
       N       E                     dE             d eps       ncg     rms          rms(c)
DAV:   1    -0.105430304941E+04    0.66878E-06   -0.40955E-02  3264   0.230E-01    0.888E-02
RMM:   2    -0.105430309862E+04   -0.49213E-04   -0.10660E-03  2842   0.420E-02    0.552E-02
RMM:   3    -0.105430309389E+04    0.47291E-05   -0.56820E-05  1604   0.148E-02    0.437E-02
RMM:   4    -0.105430309130E+04    0.25892E-05   -0.20472E-05  1599   0.656E-03    0.261E-02
RMM:   5    -0.105430308858E+04    0.27280E-05   -0.10030E-05  1532   0.498E-03    0.130E-02
RMM:   6    -0.105430308823E+04    0.34338E-06   -0.54538E-06  1306   0.377E-03    0.182E-02
RMM:   7    -0.105430308776E+04    0.47617E-06   -0.23613E-06   691   0.244E-03    0.588E-03
RMM:   8    -0.105430308702E+04    0.73844E-06   -0.14388E-06   484   0.230E-03
  28 F= -.10543031E+04 E0= -.10543031E+04  d E =-.309112E-02  mag=    80.0000
       N       E                     dE             d eps       ncg     rms          rms(c)
DAV:   1    -0.105429635824E+04    0.67295E-02   -0.24037E+00  3104   0.170E+00    0.574E-01
RMM:   2    -0.105430399024E+04   -0.76320E-02   -0.54823E-02  3217   0.294E-01    0.344E-01
RMM:   3    -0.105430456996E+04   -0.57972E-03   -0.26808E-03  3168   0.822E-02    0.176E-01
RMM:   4    -0.105430440837E+04    0.16159E-03   -0.54182E-04  2809   0.273E-02    0.836E-02
RMM:   5    -0.105430439004E+04    0.18334E-04   -0.17144E-04  2014   0.162E-02    0.584E-02
RMM:   6    -0.105430439601E+04   -0.59706E-05   -0.41469E-05  1746   0.949E-03    0.184E-02
RMM:   7    -0.105430439637E+04   -0.36138E-06   -0.22151E-05  1611   0.565E-03    0.142E-02
RMM:   8    -0.105430439655E+04   -0.17621E-06   -0.13820E-05  1466   0.437E-03
  29 F= -.10543044E+04 E0= -.10543044E+04  d E =-.130953E-02  mag=    80.0000
