<?xml version="1.0" encoding="ISO-8859-1"?>
<modeling>
 <generator>
  <i name="program" type="string">vasp </i>
  <i name="version" type="string">5.4.1  </i>
  <i name="subversion" type="string">05Feb16 (build Jan 25 2017 20:16:33) complex                          parallel </i>
  <i name="platform" type="string">BWXE6 </i>
  <i name="date" type="string">2019 08 10 </i>
  <i name="time" type="string">23:24:15 </i>
 </generator>
 <incar>
  <i type="string" name="SYSTEM"> STF</i>
  <i type="string" name="PREC">normal</i>
  <i type="string" name="ALGO"> Fast</i>
  <i type="int" name="ISPIN">     2</i>
  <i type="int" name="NELM">    40</i>
  <i type="int" name="NELMIN">     8</i>
  <i type="int" name="IBRION">     2</i>
  <i name="EDIFF">      0.00010000</i>
  <i name="EDIFFG">     -0.03000000</i>
  <i type="int" name="NSW">    30</i>
  <i type="int" name="ISIF">     3</i>
  <i name="ENCUT">    520.00000000</i>
  <i type="int" name="NBANDS">   768</i>
  <v name="MAGMOM">      0.60000000      0.60000000      0.60000000      0.60000000      0.60000000      0.60000000      0.60000000      0.60000000      0.60000000      0.60000000      0.60000000      0.60000000      0.60000000      0.60000000      0.60000000      0.60000000      0.60000000      0.60000000      0.60000000      0.60000000
      0.60000000      0.60000000      0.60000000      0.60000000      0.60000000      0.60000000      0.60000000      0.60000000      0.60000000      0.60000000      0.60000000      0.60000000      0.60000000      0.60000000      0.60000000      0.60000000      0.60000000      0.60000000      0.60000000      0.60000000
      0.60000000      0.60000000      0.60000000      0.60000000      0.60000000      0.60000000      0.60000000      0.60000000      5.00000000      5.00000000      5.00000000      5.00000000      5.00000000      5.00000000      5.00000000      5.00000000      5.00000000      5.00000000      5.00000000      5.00000000
      5.00000000      5.00000000      5.00000000      5.00000000      0.60000000      0.60000000      0.60000000      0.60000000      0.60000000      0.60000000      0.60000000      0.60000000      0.60000000      0.60000000      0.60000000      0.60000000      0.60000000      0.60000000      0.60000000      0.60000000
      0.60000000      0.60000000      0.60000000      0.60000000      0.60000000      0.60000000      0.60000000      0.60000000      0.60000000      0.60000000      0.60000000      0.60000000      0.60000000      0.60000000      0.60000000      0.60000000      0.60000000      0.60000000      0.60000000      0.60000000
      0.60000000      0.60000000      0.60000000      0.60000000      0.60000000      0.60000000      0.60000000      0.60000000      0.60000000      0.60000000      0.60000000      0.60000000      0.60000000      0.60000000      0.60000000      0.60000000      0.60000000      0.60000000      0.60000000      0.60000000
      0.60000000      0.60000000      0.60000000      0.60000000      0.60000000      0.60000000      0.60000000      0.60000000      0.60000000      0.60000000      0.60000000      0.60000000      0.60000000      0.60000000      0.60000000      0.60000000      0.60000000      0.60000000      0.60000000      0.60000000
      0.60000000      0.60000000      0.60000000      0.60000000      0.60000000      0.60000000      0.60000000      0.60000000      0.60000000      0.60000000      0.60000000      0.60000000</v>
  <i type="string" name="LREAL"> Auto</i>
  <i type="int" name="ISMEAR">     0</i>
  <i name="SIGMA">      0.05000000</i>
  <i type="int" name="LMAXMIX">     4</i>
  <v type="int" name="KPOINT_BSE">    -1     0     0     0</v>
  <i type="int" name="NELM">    40</i>
  <i type="logical" name="LDAU"> T  </i>
  <v type="int" name="LDAUTYPE">     2</v>
  <v type="int" name="LDAUL">     0     2     2     0</v>
  <v name="LDAUU">      0.00000000      3.00000000      5.00000000      0.00000000</v>
  <v name="LDAUJ">      0.00000000      0.00000000      0.00000000      0.00000000</v>
  <i type="int" name="LDAUPRINT">     1</i>
 </incar>
 <kpoints>
  <generation param="Monkhorst-Pack">
   <v type="int" name="divisions">       2        2        2 </v>
   <v name="usershift">      0.00000000       0.00000000       0.00000000 </v>
   <v name="genvec1">      0.50000000       0.00000000       0.00000000 </v>
   <v name="genvec2">      0.00000000       0.50000000       0.00000000 </v>
   <v name="genvec3">      0.00000000       0.00000000       0.50000000 </v>
   <v name="shift">      0.50000000       0.50000000       0.50000000 </v>
  </generation>
  <varray name="kpointlist" >
   <v>       0.25000000       0.25000000       0.25000000 </v>
  </varray>
  <varray name="weights" >
   <v>       1.00000000 </v>
  </varray>
 </kpoints>
 <parameters>
  <separator name="general" >
   <i type="string" name="SYSTEM">STF</i>
   <i type="logical" name="LCOMPAT"> F  </i>
  </separator>
  <separator name="electronic" >
   <i type="string" name="PREC">normal</i>
   <i name="ENMAX">    520.00000000</i>
   <i name="ENAUG">    605.39200000</i>
   <i name="EDIFF">      0.00010000</i>
   <i type="int" name="IALGO">    68</i>
   <i type="int" name="IWAVPR">    11</i>
   <i type="int" name="NBANDS">   768</i>
   <i name="NELECT">   1040.00000000</i>
   <i type="int" name="TURBO">     0</i>
   <i type="int" name="IRESTART">     0</i>
   <i type="int" name="NREBOOT">     0</i>
   <i type="int" name="NMIN">     0</i>
   <i name="EREF">      0.00000000</i>
   <separator name="electronic smearing" >
    <i type="int" name="ISMEAR">     0</i>
    <i name="SIGMA">      0.05000000</i>
    <i name="KSPACING">      0.50000000</i>
    <i type="logical" name="KGAMMA"> T  </i>
   </separator>
   <separator name="electronic projectors" >
    <i type="logical" name="LREAL"> T  </i>
    <v name="ROPT">     -0.00050000     -0.00050000     -0.00050000     -0.00050000</v>
    <i type="int" name="LMAXPAW">  -100</i>
    <i type="int" name="LMAXMIX">     4</i>
    <i type="logical" name="NLSPLINE"> F  </i>
   </separator>
   <separator name="electronic startup" >
    <i type="int" name="ISTART">     0</i>
    <i type="int" name="ICHARG">     2</i>
    <i type="int" name="INIWAV">     1</i>
   </separator>
   <separator name="electronic spin" >
    <i type="int" name="ISPIN">     2</i>
    <i type="logical" name="LNONCOLLINEAR"> F  </i>
    <v name="MAGMOM">      0.60000000      0.60000000      0.60000000      0.60000000      0.60000000      0.60000000      0.60000000      0.60000000      0.60000000      0.60000000      0.60000000      0.60000000      0.60000000      0.60000000      0.60000000      0.60000000      0.60000000      0.60000000      0.60000000      0.60000000
      0.60000000      0.60000000      0.60000000      0.60000000      0.60000000      0.60000000      0.60000000      0.60000000      0.60000000      0.60000000      0.60000000      0.60000000      0.60000000      0.60000000      0.60000000      0.60000000      0.60000000      0.60000000      0.60000000      0.60000000
      0.60000000      0.60000000      0.60000000      0.60000000      0.60000000      0.60000000      0.60000000      0.60000000      5.00000000      5.00000000      5.00000000      5.00000000      5.00000000      5.00000000      5.00000000      5.00000000      5.00000000      5.00000000      5.00000000      5.00000000
      5.00000000      5.00000000      5.00000000      5.00000000      0.60000000      0.60000000      0.60000000      0.60000000      0.60000000      0.60000000      0.60000000      0.60000000      0.60000000      0.60000000      0.60000000      0.60000000      0.60000000      0.60000000      0.60000000      0.60000000
      0.60000000      0.60000000      0.60000000      0.60000000      0.60000000      0.60000000      0.60000000      0.60000000      0.60000000      0.60000000      0.60000000      0.60000000      0.60000000      0.60000000      0.60000000      0.60000000      0.60000000      0.60000000      0.60000000      0.60000000
      0.60000000      0.60000000      0.60000000      0.60000000      0.60000000      0.60000000      0.60000000      0.60000000      0.60000000      0.60000000      0.60000000      0.60000000      0.60000000      0.60000000      0.60000000      0.60000000      0.60000000      0.60000000      0.60000000      0.60000000
      0.60000000      0.60000000      0.60000000      0.60000000      0.60000000      0.60000000      0.60000000      0.60000000      0.60000000      0.60000000      0.60000000      0.60000000      0.60000000      0.60000000      0.60000000      0.60000000      0.60000000      0.60000000      0.60000000      0.60000000
      0.60000000      0.60000000      0.60000000      0.60000000      0.60000000      0.60000000      0.60000000      0.60000000      0.60000000      0.60000000      0.60000000      0.60000000</v>
    <i name="NUPDOWN">     -1.00000000</i>
    <i type="logical" name="LSORBIT"> F  </i>
    <v name="SAXIS">      0.00000000      0.00000000      1.00000000</v>
    <i type="logical" name="LSPIRAL"> F  </i>
    <v name="QSPIRAL">      0.00000000      0.00000000      0.00000000</v>
    <i type="logical" name="LZEROZ"> F  </i>
   </separator>
   <separator name="electronic exchange-correlation" >
    <i type="logical" name="LASPH"> F  </i>
    <i type="logical" name="LMETAGGA"> F  </i>
   </separator>
   <separator name="electronic convergence" >
    <i type="int" name="NELM">    40</i>
    <i type="int" name="NELMDL">    -5</i>
    <i type="int" name="NELMIN">     8</i>
    <i name="ENINI">    520.00000000</i>
    <separator name="electronic convergence detail" >
     <i type="logical" name="LDIAG"> T  </i>
     <i type="logical" name="LSUBROT"> F  </i>
     <i name="WEIMIN">      0.00100000</i>
     <i name="EBREAK">      0.00000003</i>
     <i name="DEPER">      0.30000000</i>
     <i type="int" name="NRMM">     4</i>
     <i name="TIME">      0.40000000</i>
    </separator>
   </separator>
   <separator name="electronic mixer" >
    <i name="AMIX">      0.40000000</i>
    <i name="BMIX">      1.00000000</i>
    <i name="AMIN">      0.10000000</i>
    <i name="AMIX_MAG">      1.60000000</i>
    <i name="BMIX_MAG">      1.00000000</i>
    <separator name="electronic mixer details" >
     <i type="int" name="IMIX">     4</i>
     <i type="logical" name="MIXFIRST"> F  </i>
     <i type="int" name="MAXMIX">   -45</i>
     <i name="WC">    100.00000000</i>
     <i type="int" name="INIMIX">     1</i>
     <i type="int" name="MIXPRE">     1</i>
     <i type="int" name="MREMOVE">     5</i>
    </separator>
   </separator>
   <separator name="electronic dipolcorrection" >
    <i type="logical" name="LDIPOL"> F  </i>
    <i type="logical" name="LMONO"> F  </i>
    <i type="int" name="IDIPOL">     0</i>
    <i name="EPSILON">      1.00000000</i>
    <v name="DIPOL">   -100.00000000   -100.00000000   -100.00000000</v>
    <i name="EFIELD">      0.00000000</i>
   </separator>
  </separator>
  <separator name="grids" >
   <i type="int" name="NGX">    64</i>
   <i type="int" name="NGY">    64</i>
   <i type="int" name="NGZ">    90</i>
   <i type="int" name="NGXF">   128</i>
   <i type="int" name="NGYF">   128</i>
   <i type="int" name="NGZF">   180</i>
   <i type="logical" name="ADDGRID"> F  </i>
  </separator>
  <separator name="ionic" >
   <i type="int" name="NSW">    30</i>
   <i type="int" name="IBRION">     2</i>
   <i type="int" name="ISIF">     3</i>
   <i name="PSTRESS">      0.00000000</i>
   <i name="EDIFFG">     -0.03000000</i>
   <i type="int" name="NFREE">     1</i>
   <i name="POTIM">      0.50000000</i>
   <i name="SMASS">     -3.00000000</i>
   <i name="SCALEE">      1.00000000</i>
  </separator>
  <separator name="ionic md" >
   <i name="TEBEG">      0.00010000</i>
   <i name="TEEND">      0.00010000</i>
   <i type="int" name="NBLOCK">     1</i>
   <i type="int" name="KBLOCK">    30</i>
   <i type="int" name="NPACO">   256</i>
   <i name="APACO">     16.00000000</i>
  </separator>
  <separator name="symmetry" >
   <i type="int" name="ISYM">     2</i>
   <i name="SYMPREC">      0.00001000</i>
  </separator>
  <separator name="dos" >
   <i type="logical" name="LORBIT"> F  </i>
   <v name="RWIGS">     -1.00000000     -1.00000000     -1.00000000     -1.00000000</v>
   <i type="int" name="NEDOS">   301</i>
   <i name="EMIN">     10.00000000</i>
   <i name="EMAX">    -10.00000000</i>
   <i name="EFERMI">      0.00000000</i>
  </separator>
  <separator name="writing" >
   <i type="int" name="NWRITE">     2</i>
   <i type="logical" name="LWAVE"> T  </i>
   <i type="logical" name="LCHARG"> T  </i>
   <i type="logical" name="LPARD"> F  </i>
   <i type="logical" name="LVTOT"> F  </i>
   <i type="logical" name="LVHAR"> F  </i>
   <i type="logical" name="LELF"> F  </i>
   <i type="logical" name="LOPTICS"> F  </i>
   <v name="STM">      0.00000000      0.00000000      0.00000000      0.00000000      0.00000000      0.00000000      0.00000000</v>
  </separator>
  <separator name="performance" >
   <i type="int" name="NPAR">     2</i>
   <i type="int" name="NSIM">     4</i>
   <i type="int" name="NBLK">    -1</i>
   <i type="logical" name="LPLANE"> T  </i>
   <i type="logical" name="LSCALAPACK"> T  </i>
   <i type="logical" name="LSCAAWARE"> F  </i>
   <i type="logical" name="LSCALU"> F  </i>
   <i type="logical" name="LASYNC"> F  </i>
   <i type="logical" name="LORBITALREAL"> F  </i>
  </separator>
  <separator name="miscellaneous" >
   <i type="int" name="IDIOT">     3</i>
   <i type="logical" name="LMUSIC"> F  </i>
   <v name="POMASS">     87.62000000     47.88000000     55.84700000     16.00000000</v>
   <v name="DARWINR">      0.00000000      0.00000000      0.00000000      0.00000000</v>
   <v name="DARWINV">      1.00000000      1.00000000      1.00000000      1.00000000</v>
   <i type="logical" name="LCORR"> T  </i>
  </separator>
  <i type="logical" name="GGA_COMPAT"> T  </i>
  <i type="logical" name="LBERRY"> F  </i>
  <i type="int" name="ICORELEVEL">     0</i>
  <i type="logical" name="LDAU"> T  </i>
  <v type="int" name="LDAUTYPE">     2</v>
  <v type="int" name="LDAUL">     0</v>
  <v name="LDAUU">      0.00000000</v>
  <v name="LDAUJ">      0.00000000</v>
  <i type="int" name="LDAUPRINT">     1</i>
  <i type="int" name="I_CONSTRAINED_M">     0</i>
  <separator name="electronic exchange-correlation" >
   <i type="string" name="GGA">--</i>
   <i type="int" name="VOSKOWN">     0</i>
   <i type="logical" name="LHFCALC"> F  </i>
   <i type="string" name="PRECFOCK"></i>
   <i type="logical" name="LSYMGRAD"> F  </i>
   <i type="logical" name="LHFONE"> F  </i>
   <i type="logical" name="LRHFCALC"> F  </i>
   <i type="logical" name="LTHOMAS"> F  </i>
   <i type="logical" name="LMODELHF"> F  </i>
   <i name="ENCUT4O">     -1.00000000</i>
   <i type="int" name="EXXOEP">     0</i>
   <i type="int" name="FOURORBIT">     0</i>
   <i name="AEXX">      0.00000000</i>
   <i name="HFALPHA">      0.00000000</i>
   <i name="MCALPHA">      0.00000000</i>
   <i name="ALDAX">      1.00000000</i>
   <i name="AGGAX">      1.00000000</i>
   <i name="ALDAC">      1.00000000</i>
   <i name="AGGAC">      1.00000000</i>
   <i type="int" name="NKREDX">     1</i>
   <i type="int" name="NKREDY">     1</i>
   <i type="int" name="NKREDZ">     1</i>
   <i type="logical" name="SHIFTRED"> F  </i>
   <i type="logical" name="ODDONLY"> F  </i>
   <i type="logical" name="EVENONLY"> F  </i>
   <i type="int" name="LMAXFOCK">     0</i>
   <i type="int" name="NMAXFOCKAE">     0</i>
   <i type="logical" name="LFOCKAEDFT"> F  </i>
   <i name="HFSCREEN">      0.00000000</i>
   <i name="HFSCREENC">      0.00000000</i>
   <i type="int" name="NBANDSGWLOW">     0</i>
  </separator>
  <separator name="vdW DFT" >
   <i type="logical" name="LUSE_VDW"> F  </i>
   <i name="Zab_VDW">     -0.84910000</i>
   <i name="PARAM1">      0.12340000</i>
   <i name="PARAM2">      1.00000000</i>
   <i name="PARAM3">      0.00000000</i>
  </separator>
  <separator name="model GW" >
   <i type="int" name="MODEL_GW">     0</i>
   <i name="MODEL_EPS0">      7.91269546</i>
   <i name="MODEL_ALPHA">      1.00000000</i>
  </separator>
  <separator name="linear response parameters" >
   <i type="logical" name="LEPSILON"> F  </i>
   <i type="logical" name="LRPA"> F  </i>
   <i type="logical" name="LNABLA"> F  </i>
   <i type="logical" name="LVEL"> F  </i>
   <i type="int" name="KINTER">     0</i>
   <i name="CSHIFT">      0.10000000</i>
   <i name="OMEGAMAX">     -1.00000000</i>
   <i name="DEG_THRESHOLD">      0.00200000</i>
  </separator>
  <separator name="orbital magnetization" >
   <i type="logical" name="NUCIND"> F  </i>
   <v name="MAGPOS">      0.00000000      0.00000000      0.00000000</v>
   <i type="logical" name="LNICSALL"> T  </i>
   <i type="logical" name="ORBITALMAG"> F  </i>
   <i type="logical" name="LMAGBLOCH"> F  </i>
   <i type="logical" name="LCHIMAG"> F  </i>
   <i type="logical" name="LGAUGE"> T  </i>
   <i type="int" name="MAGATOM">     0</i>
   <v name="MAGDIPOL">      0.00000000      0.00000000      0.00000000</v>
   <v name="AVECCONST">      0.00000000      0.00000000      0.00000000</v>
  </separator>
  <separator name="response functions" >
   <i type="logical" name="LADDER"> F  </i>
   <i type="logical" name="LFXC"> F  </i>
   <i type="logical" name="LHARTREE"> T  </i>
   <i type="int" name="IBSE">     0</i>
   <v type="int" name="KPOINT">    -1     0     0     0</v>
   <i type="logical" name="LTCTE"> F  </i>
   <i type="logical" name="LTETE"> F  </i>
   <i type="logical" name="LTRIPLET"> F  </i>
   <i type="logical" name="LFXCEPS"> F  </i>
   <i type="logical" name="LFXHEG"> F  </i>
   <i type="int" name="NATURALO">     0</i>
   <i type="logical" name="L2ORDER"> F  </i>
   <i type="logical" name="LUSEW"> F  </i>
   <i name="ENCUTGW">     -2.00000000</i>
   <i name="ENCUTGWSOFT">     -2.00000000</i>
   <i name="ENCUTLF">     -1.00000000</i>
   <i type="int" name="LMAXMP2">    -1</i>
   <i name="SCISSOR">      0.00000000</i>
   <i type="int" name="NOMEGA">     0</i>
   <i type="int" name="NOMEGAR">     0</i>
   <i type="int" name="NBANDSGW">    -1</i>
   <i type="int" name="NBANDSO">    -1</i>
   <i type="int" name="NBANDSV">    -1</i>
   <i type="int" name="NELM">    40</i>
   <i type="int" name="NELMHF">     1</i>
   <i type="int" name="DIM">     3</i>
   <i type="int" name="ANTIRES">     0</i>
   <i name="OMEGAMAX">    -30.00000000</i>
   <i name="OMEGAMIN">    -30.00000000</i>
   <i name="OMEGATL">   -200.00000000</i>
   <i type="int" name="OMEGAGRID">     0</i>
   <i name="CSHIFT">     -0.10000000</i>
   <i type="logical" name="SELFENERGY"> F  </i>
   <i type="logical" name="LSPECTRAL"> F  </i>
   <i type="logical" name="LSPECTRALGW"> F  </i>
   <i type="logical" name="LSINGLES"> F  </i>
   <i type="logical" name="LFERMIGW"> F  </i>
   <i type="logical" name="ODDONLYGW"> F  </i>
   <i type="logical" name="EVENONLYGW"> F  </i>
   <i type="int" name="NKREDLFX">     1</i>
   <i type="int" name="NKREDLFY">     1</i>
   <i type="int" name="NKREDLFZ">     1</i>
   <i type="int" name="MAXMEM">  1800</i>
   <i type="int" name="TELESCOPE">     0</i>
   <i type="int" name="TAUPAR">     1</i>
   <i type="int" name="OMEGAPAR">    -1</i>
   <i name="LAMBDA">      1.00000000</i>
  </separator>
  <separator name="External order field" >
   <i name="OFIELD_KAPPA">      0.00000000</i>
   <v name="OFIELD_K">      0.00000000      0.00000000      0.00000000</v>
   <i name="OFIELD_Q6_NEAR">      0.00000000</i>
   <i name="OFIELD_Q6_FAR">      0.00000000</i>
   <i name="OFIELD_A">      0.00000000</i>
  </separator>
 </parameters>
 <atominfo>
  <atoms>     152 </atoms>
  <types>       4 </types>
  <array name="atoms" >
   <dimension dim="1">ion</dimension>
   <field type="string">element</field>
   <field type="int">atomtype</field>
   <set>
    <rc><c>Sr</c><c>   1</c></rc>
    <rc><c>Sr</c><c>   1</c></rc>
    <rc><c>Sr</c><c>   1</c></rc>
    <rc><c>Sr</c><c>   1</c></rc>
    <rc><c>Sr</c><c>   1</c></rc>
    <rc><c>Sr</c><c>   1</c></rc>
    <rc><c>Sr</c><c>   1</c></rc>
    <rc><c>Sr</c><c>   1</c></rc>
    <rc><c>Sr</c><c>   1</c></rc>
    <rc><c>Sr</c><c>   1</c></rc>
    <rc><c>Sr</c><c>   1</c></rc>
    <rc><c>Sr</c><c>   1</c></rc>
    <rc><c>Sr</c><c>   1</c></rc>
    <rc><c>Sr</c><c>   1</c></rc>
    <rc><c>Sr</c><c>   1</c></rc>
    <rc><c>Sr</c><c>   1</c></rc>
    <rc><c>Sr</c><c>   1</c></rc>
    <rc><c>Sr</c><c>   1</c></rc>
    <rc><c>Sr</c><c>   1</c></rc>
    <rc><c>Sr</c><c>   1</c></rc>
    <rc><c>Sr</c><c>   1</c></rc>
    <rc><c>Sr</c><c>   1</c></rc>
    <rc><c>Sr</c><c>   1</c></rc>
    <rc><c>Sr</c><c>   1</c></rc>
    <rc><c>Sr</c><c>   1</c></rc>
    <rc><c>Sr</c><c>   1</c></rc>
    <rc><c>Sr</c><c>   1</c></rc>
    <rc><c>Sr</c><c>   1</c></rc>
    <rc><c>Sr</c><c>   1</c></rc>
    <rc><c>Sr</c><c>   1</c></rc>
    <rc><c>Sr</c><c>   1</c></rc>
    <rc><c>Sr</c><c>   1</c></rc>
    <rc><c>Ti</c><c>   2</c></rc>
    <rc><c>Ti</c><c>   2</c></rc>
    <rc><c>Ti</c><c>   2</c></rc>
    <rc><c>Ti</c><c>   2</c></rc>
    <rc><c>Ti</c><c>   2</c></rc>
    <rc><c>Ti</c><c>   2</c></rc>
    <rc><c>Ti</c><c>   2</c></rc>
    <rc><c>Ti</c><c>   2</c></rc>
    <rc><c>Ti</c><c>   2</c></rc>
    <rc><c>Ti</c><c>   2</c></rc>
    <rc><c>Ti</c><c>   2</c></rc>
    <rc><c>Ti</c><c>   2</c></rc>
    <rc><c>Ti</c><c>   2</c></rc>
    <rc><c>Ti</c><c>   2</c></rc>
    <rc><c>Ti</c><c>   2</c></rc>
    <rc><c>Ti</c><c>   2</c></rc>
    <rc><c>Fe</c><c>   3</c></rc>
    <rc><c>Fe</c><c>   3</c></rc>
    <rc><c>Fe</c><c>   3</c></rc>
    <rc><c>Fe</c><c>   3</c></rc>
    <rc><c>Fe</c><c>   3</c></rc>
    <rc><c>Fe</c><c>   3</c></rc>
    <rc><c>Fe</c><c>   3</c></rc>
    <rc><c>Fe</c><c>   3</c></rc>
    <rc><c>Fe</c><c>   3</c></rc>
    <rc><c>Fe</c><c>   3</c></rc>
    <rc><c>Fe</c><c>   3</c></rc>
    <rc><c>Fe</c><c>   3</c></rc>
    <rc><c>Fe</c><c>   3</c></rc>
    <rc><c>Fe</c><c>   3</c></rc>
    <rc><c>Fe</c><c>   3</c></rc>
    <rc><c>Fe</c><c>   3</c></rc>
    <rc><c>O </c><c>   4</c></rc>
    <rc><c>O </c><c>   4</c></rc>
    <rc><c>O </c><c>   4</c></rc>
    <rc><c>O </c><c>   4</c></rc>
    <rc><c>O </c><c>   4</c></rc>
    <rc><c>O </c><c>   4</c></rc>
    <rc><c>O </c><c>   4</c></rc>
    <rc><c>O </c><c>   4</c></rc>
    <rc><c>O </c><c>   4</c></rc>
    <rc><c>O </c><c>   4</c></rc>
    <rc><c>O </c><c>   4</c></rc>
    <rc><c>O </c><c>   4</c></rc>
    <rc><c>O </c><c>   4</c></rc>
    <rc><c>O </c><c>   4</c></rc>
    <rc><c>O </c><c>   4</c></rc>
    <rc><c>O </c><c>   4</c></rc>
    <rc><c>O </c><c>   4</c></rc>
    <rc><c>O </c><c>   4</c></rc>
    <rc><c>O </c><c>   4</c></rc>
    <rc><c>O </c><c>   4</c></rc>
    <rc><c>O </c><c>   4</c></rc>
    <rc><c>O </c><c>   4</c></rc>
    <rc><c>O </c><c>   4</c></rc>
    <rc><c>O </c><c>   4</c></rc>
    <rc><c>O </c><c>   4</c></rc>
    <rc><c>O </c><c>   4</c></rc>
    <rc><c>O </c><c>   4</c></rc>
    <rc><c>O </c><c>   4</c></rc>
    <rc><c>O </c><c>   4</c></rc>
    <rc><c>O </c><c>   4</c></rc>
    <rc><c>O </c><c>   4</c></rc>
    <rc><c>O </c><c>   4</c></rc>
    <rc><c>O </c><c>   4</c></rc>
    <rc><c>O </c><c>   4</c></rc>
    <rc><c>O </c><c>   4</c></rc>
    <rc><c>O </c><c>   4</c></rc>
    <rc><c>O </c><c>   4</c></rc>
    <rc><c>O </c><c>   4</c></rc>
    <rc><c>O </c><c>   4</c></rc>
    <rc><c>O </c><c>   4</c></rc>
    <rc><c>O </c><c>   4</c></rc>
    <rc><c>O </c><c>   4</c></rc>
    <rc><c>O </c><c>   4</c></rc>
    <rc><c>O </c><c>   4</c></rc>
    <rc><c>O </c><c>   4</c></rc>
    <rc><c>O </c><c>   4</c></rc>
    <rc><c>O </c><c>   4</c></rc>
    <rc><c>O </c><c>   4</c></rc>
    <rc><c>O </c><c>   4</c></rc>
    <rc><c>O </c><c>   4</c></rc>
    <rc><c>O </c><c>   4</c></rc>
    <rc><c>O </c><c>   4</c></rc>
    <rc><c>O </c><c>   4</c></rc>
    <rc><c>O </c><c>   4</c></rc>
    <rc><c>O </c><c>   4</c></rc>
    <rc><c>O </c><c>   4</c></rc>
    <rc><c>O </c><c>   4</c></rc>
    <rc><c>O </c><c>   4</c></rc>
    <rc><c>O </c><c>   4</c></rc>
    <rc><c>O </c><c>   4</c></rc>
    <rc><c>O </c><c>   4</c></rc>
    <rc><c>O </c><c>   4</c></rc>
    <rc><c>O </c><c>   4</c></rc>
    <rc><c>O </c><c>   4</c></rc>
    <rc><c>O </c><c>   4</c></rc>
    <rc><c>O </c><c>   4</c></rc>
    <rc><c>O </c><c>   4</c></rc>
    <rc><c>O </c><c>   4</c></rc>
    <rc><c>O </c><c>   4</c></rc>
    <rc><c>O </c><c>   4</c></rc>
    <rc><c>O </c><c>   4</c></rc>
    <rc><c>O </c><c>   4</c></rc>
    <rc><c>O </c><c>   4</c></rc>
    <rc><c>O </c><c>   4</c></rc>
    <rc><c>O </c><c>   4</c></rc>
    <rc><c>O </c><c>   4</c></rc>
    <rc><c>O </c><c>   4</c></rc>
    <rc><c>O </c><c>   4</c></rc>
    <rc><c>O </c><c>   4</c></rc>
    <rc><c>O </c><c>   4</c></rc>
    <rc><c>O </c><c>   4</c></rc>
    <rc><c>O </c><c>   4</c></rc>
    <rc><c>O </c><c>   4</c></rc>
    <rc><c>O </c><c>   4</c></rc>
    <rc><c>O </c><c>   4</c></rc>
    <rc><c>O </c><c>   4</c></rc>
    <rc><c>O </c><c>   4</c></rc>
    <rc><c>O </c><c>   4</c></rc>
   </set>
  </array>
  <array name="atomtypes" >
   <dimension dim="1">type</dimension>
   <field type="int">atomspertype</field>
   <field type="string">element</field>
   <field>mass</field>
   <field>valence</field>
   <field type="string">pseudopotential</field>
   <set>
    <rc><c>  32</c><c>Sr</c><c>     87.62000000</c><c>     10.00000000</c><c>  PAW_PBE Sr_sv 07Sep2000               </c></rc>
    <rc><c>  16</c><c>Ti</c><c>     47.88000000</c><c>      4.00000000</c><c>  PAW_PBE Ti 08Apr2002                  </c></rc>
    <rc><c>  16</c><c>Fe</c><c>     55.84700000</c><c>      8.00000000</c><c>  PAW_PBE Fe 06Sep2000                  </c></rc>
    <rc><c>  88</c><c>O </c><c>     16.00000000</c><c>      6.00000000</c><c>  PAW_PBE O 08Apr2002                   </c></rc>
   </set>
  </array>
 </atominfo>
 <structure name="initialpos" >
  <crystal>
   <varray name="basis" >
    <v>      11.19900000       0.00000000       0.00000000 </v>
    <v>       0.00000000      11.19900000       0.00000000 </v>
    <v>       0.00000000       0.00000000      15.98300000 </v>
   </varray>
   <i name="volume">   2004.54951678 </i>
   <varray name="rec_basis" >
    <v>       0.08929369       0.00000000       0.00000000 </v>
    <v>       0.00000000       0.08929369       0.00000000 </v>
    <v>       0.00000000       0.00000000       0.06256648 </v>
   </varray>
  </crystal>
  <varray name="positions" >
   <v>       0.00000000       0.25000000       0.12500000 </v>
   <v>       0.00000000       0.25000000       0.62500000 </v>
   <v>       0.00000000       0.75000000       0.12500000 </v>
   <v>       0.00000000       0.75000000       0.62500000 </v>
   <v>       0.50000000       0.25000000       0.12500000 </v>
   <v>       0.50000000       0.25000000       0.62500000 </v>
   <v>       0.50000000       0.75000000       0.12500000 </v>
   <v>       0.50000000       0.75000000       0.62500000 </v>
   <v>       0.00000000       0.25000000       0.37500000 </v>
   <v>       0.00000000       0.25000000       0.87500000 </v>
   <v>       0.00000000       0.75000000       0.37500000 </v>
   <v>       0.00000000       0.75000000       0.87500000 </v>
   <v>       0.50000000       0.25000000       0.37500000 </v>
   <v>       0.50000000       0.25000000       0.87500000 </v>
   <v>       0.50000000       0.75000000       0.37500000 </v>
   <v>       0.50000000       0.75000000       0.87500000 </v>
   <v>       0.25000000       0.00000000       0.12500000 </v>
   <v>       0.25000000       0.00000000       0.62500000 </v>
   <v>       0.25000000       0.50000000       0.12500000 </v>
   <v>       0.25000000       0.50000000       0.62500000 </v>
   <v>       0.75000000       0.00000000       0.12500000 </v>
   <v>       0.75000000       0.00000000       0.62500000 </v>
   <v>       0.75000000       0.50000000       0.12500000 </v>
   <v>       0.75000000       0.50000000       0.62500000 </v>
   <v>       0.25000000       0.00000000       0.37500000 </v>
   <v>       0.25000000       0.00000000       0.87500000 </v>
   <v>       0.25000000       0.50000000       0.37500000 </v>
   <v>       0.25000000       0.50000000       0.87500000 </v>
   <v>       0.75000000       0.00000000       0.37500000 </v>
   <v>       0.75000000       0.00000000       0.87500000 </v>
   <v>       0.75000000       0.50000000       0.37500000 </v>
   <v>       0.75000000       0.50000000       0.87500000 </v>
   <v>       0.25000000       0.25000000       0.00000000 </v>
   <v>       0.25000000       0.25000000       0.50000000 </v>
   <v>       0.25000000       0.75000000       0.00000000 </v>
   <v>       0.25000000       0.75000000       0.50000000 </v>
   <v>       0.75000000       0.25000000       0.00000000 </v>
   <v>       0.75000000       0.25000000       0.50000000 </v>
   <v>       0.75000000       0.75000000       0.00000000 </v>
   <v>       0.75000000       0.75000000       0.50000000 </v>
   <v>       0.25000000       0.25000000       0.25000000 </v>
   <v>       0.25000000       0.25000000       0.75000000 </v>
   <v>       0.25000000       0.75000000       0.25000000 </v>
   <v>       0.25000000       0.75000000       0.75000000 </v>
   <v>       0.75000000       0.25000000       0.25000000 </v>
   <v>       0.75000000       0.25000000       0.75000000 </v>
   <v>       0.75000000       0.75000000       0.25000000 </v>
   <v>       0.75000000       0.75000000       0.75000000 </v>
   <v>       0.00000000       0.00000000       0.25000000 </v>
   <v>       0.00000000       0.00000000       0.00000000 </v>
   <v>       0.50000000       0.00000000       0.25000000 </v>
   <v>       0.50000000       0.00000000       0.00000000 </v>
   <v>       0.00000000       0.50000000       0.25000000 </v>
   <v>       0.00000000       0.50000000       0.00000000 </v>
   <v>       0.50000000       0.50000000       0.25000000 </v>
   <v>       0.00000000       0.00000000       0.75000000 </v>
   <v>       0.00000000       0.00000000       0.50000000 </v>
   <v>       0.50000000       0.00000000       0.75000000 </v>
   <v>       0.50000000       0.00000000       0.50000000 </v>
   <v>       0.00000000       0.50000000       0.75000000 </v>
   <v>       0.00000000       0.50000000       0.50000000 </v>
   <v>       0.50000000       0.50000000       0.75000000 </v>
   <v>       0.50000000       0.50000000       0.50000000 </v>
   <v>       0.50000000       0.50000000       0.00000000 </v>
   <v>       0.10900000       0.14100000       0.25000000 </v>
   <v>       0.10900000       0.14100000       0.75000000 </v>
   <v>       0.10900000       0.64100000       0.25000000 </v>
   <v>       0.10900000       0.64100000       0.75000000 </v>
   <v>       0.60900000       0.14100000       0.25000000 </v>
   <v>       0.60900000       0.14100000       0.75000000 </v>
   <v>       0.60900000       0.64100000       0.25000000 </v>
   <v>       0.60900000       0.64100000       0.75000000 </v>
   <v>       0.39100000       0.35900000       0.25000000 </v>
   <v>       0.39100000       0.35900000       0.75000000 </v>
   <v>       0.39100000       0.85900000       0.25000000 </v>
   <v>       0.39100000       0.85900000       0.75000000 </v>
   <v>       0.89100000       0.35900000       0.25000000 </v>
   <v>       0.89100000       0.35900000       0.75000000 </v>
   <v>       0.89100000       0.85900000       0.25000000 </v>
   <v>       0.89100000       0.85900000       0.75000000 </v>
   <v>       0.35900000       0.10900000       0.25000000 </v>
   <v>       0.35900000       0.10900000       0.75000000 </v>
   <v>       0.35900000       0.60900000       0.25000000 </v>
   <v>       0.35900000       0.60900000       0.75000000 </v>
   <v>       0.85900000       0.10900000       0.25000000 </v>
   <v>       0.85900000       0.10900000       0.75000000 </v>
   <v>       0.85900000       0.60900000       0.25000000 </v>
   <v>       0.85900000       0.60900000       0.75000000 </v>
   <v>       0.14100000       0.39100000       0.25000000 </v>
   <v>       0.14100000       0.39100000       0.75000000 </v>
   <v>       0.14100000       0.89100000       0.25000000 </v>
   <v>       0.14100000       0.89100000       0.75000000 </v>
   <v>       0.64100000       0.39100000       0.25000000 </v>
   <v>       0.64100000       0.39100000       0.75000000 </v>
   <v>       0.64100000       0.89100000       0.25000000 </v>
   <v>       0.64100000       0.89100000       0.75000000 </v>
   <v>       0.35900000       0.39100000       0.00000000 </v>
   <v>       0.35900000       0.39100000       0.50000000 </v>
   <v>       0.35900000       0.89100000       0.00000000 </v>
   <v>       0.35900000       0.89100000       0.50000000 </v>
   <v>       0.85900000       0.39100000       0.00000000 </v>
   <v>       0.85900000       0.39100000       0.50000000 </v>
   <v>       0.85900000       0.89100000       0.00000000 </v>
   <v>       0.85900000       0.89100000       0.50000000 </v>
   <v>       0.14100000       0.10900000       0.00000000 </v>
   <v>       0.14100000       0.10900000       0.50000000 </v>
   <v>       0.14100000       0.60900000       0.00000000 </v>
   <v>       0.14100000       0.60900000       0.50000000 </v>
   <v>       0.64100000       0.10900000       0.00000000 </v>
   <v>       0.64100000       0.10900000       0.50000000 </v>
   <v>       0.64100000       0.60900000       0.00000000 </v>
   <v>       0.64100000       0.60900000       0.50000000 </v>
   <v>       0.10900000       0.35900000       0.00000000 </v>
   <v>       0.10900000       0.35900000       0.50000000 </v>
   <v>       0.10900000       0.85900000       0.00000000 </v>
   <v>       0.10900000       0.85900000       0.50000000 </v>
   <v>       0.60900000       0.35900000       0.00000000 </v>
   <v>       0.60900000       0.35900000       0.50000000 </v>
   <v>       0.60900000       0.85900000       0.00000000 </v>
   <v>       0.60900000       0.85900000       0.50000000 </v>
   <v>       0.39100000       0.14100000       0.00000000 </v>
   <v>       0.39100000       0.14100000       0.50000000 </v>
   <v>       0.39100000       0.64100000       0.00000000 </v>
   <v>       0.39100000       0.64100000       0.50000000 </v>
   <v>       0.89100000       0.14100000       0.00000000 </v>
   <v>       0.89100000       0.14100000       0.50000000 </v>
   <v>       0.89100000       0.64100000       0.00000000 </v>
   <v>       0.89100000       0.64100000       0.50000000 </v>
   <v>       0.00000000       0.00000000       0.37500000 </v>
   <v>       0.00000000       0.00000000       0.87500000 </v>
   <v>       0.00000000       0.50000000       0.37500000 </v>
   <v>       0.00000000       0.50000000       0.87500000 </v>
   <v>       0.50000000       0.00000000       0.37500000 </v>
   <v>       0.50000000       0.00000000       0.87500000 </v>
   <v>       0.50000000       0.50000000       0.37500000 </v>
   <v>       0.50000000       0.50000000       0.87500000 </v>
   <v>       0.25000000       0.25000000       0.37500000 </v>
   <v>       0.25000000       0.25000000       0.87500000 </v>
   <v>       0.25000000       0.75000000       0.37500000 </v>
   <v>       0.25000000       0.75000000       0.87500000 </v>
   <v>       0.75000000       0.25000000       0.37500000 </v>
   <v>       0.75000000       0.25000000       0.87500000 </v>
   <v>       0.75000000       0.75000000       0.37500000 </v>
   <v>       0.75000000       0.75000000       0.87500000 </v>
   <v>       0.25000000       0.25000000       0.12500000 </v>
   <v>       0.25000000       0.25000000       0.62500000 </v>
   <v>       0.25000000       0.75000000       0.12500000 </v>
   <v>       0.25000000       0.75000000       0.62500000 </v>
   <v>       0.75000000       0.25000000       0.12500000 </v>
   <v>       0.75000000       0.25000000       0.62500000 </v>
   <v>       0.75000000       0.75000000       0.12500000 </v>
   <v>       0.75000000       0.75000000       0.62500000 </v>
  </varray>
 </structure>
 <calculation>
  <scstep>
   <time name="dav">   70.16   70.20</time>
   <time name="total">   70.74   70.78</time>
   <energy>
    <i name="alphaZ">   5618.33838386 </i>
    <i name="ewald"> -62818.70701484 </i>
    <i name="hartreedc"> -16070.77457706 </i>
    <i name="XCdc">   3085.79654001 </i>
    <i name="pawpsdc">  61524.22494215 </i>
    <i name="pawaedc"> -60469.96712830 </i>
    <i name="eentropy">     -0.05552198 </i>
    <i name="bandstr">   5821.74849290 </i>
    <i name="atom">  76050.17612637 </i>
    <i name="e_fr_energy">  12740.78024312 </i>
    <i name="e_wo_entrp">  12740.83576510 </i>
    <i name="e_0_energy">  12740.80800411 </i>
   </energy>
  </scstep>
  <scstep>
   <time name="dav">   71.03   71.12</time>
   <time name="total">   71.04   71.15</time>
   <energy>
    <i name="e_fr_energy">    993.11272988 </i>
    <i name="e_wo_entrp">    993.12767373 </i>
    <i name="e_0_energy">    993.12020181 </i>
   </energy>
  </scstep>
  <scstep>
   <time name="dav">   75.61   75.62</time>
   <time name="total">   75.61   75.63</time>
   <energy>
    <i name="e_fr_energy">  -1181.37776490 </i>
    <i name="e_wo_entrp">  -1181.37776490 </i>
    <i name="e_0_energy">  -1181.37776490 </i>
   </energy>
  </scstep>
  <scstep>
   <time name="dav">   93.42   93.44</time>
   <time name="total">   93.43   93.46</time>
   <energy>
    <i name="e_fr_energy">  -1371.42666415 </i>
    <i name="e_wo_entrp">  -1371.42666415 </i>
    <i name="e_0_energy">  -1371.42666415 </i>
   </energy>
  </scstep>
  <scstep>
   <time name="dav">  117.10  117.13</time>
   <time name="total">  118.67  118.75</time>
   <energy>
    <i name="e_fr_energy">  -1381.35360102 </i>
    <i name="e_wo_entrp">  -1381.35360102 </i>
    <i name="e_0_energy">  -1381.35360102 </i>
   </energy>
  </scstep>
  <scstep>
   <time name="diag">    8.28    8.29</time>
   <time name="diis">   14.22   14.25</time>
   <time name="orth">    4.76    4.76</time>
   <time name="total">   29.40   29.44</time>
   <energy>
    <i name="e_fr_energy">  -1062.17047021 </i>
    <i name="e_wo_entrp">  -1062.17043184 </i>
    <i name="e_0_energy">  -1062.17045102 </i>
   </energy>
  </scstep>
  <scstep>
   <time name="diag">    8.28    8.29</time>
   <time name="diis">   13.56   13.56</time>
   <time name="orth">    4.74    4.74</time>
   <time name="total">   28.71   28.71</time>
   <energy>
    <i name="e_fr_energy">  -1041.31185302 </i>
    <i name="e_wo_entrp">  -1041.31185302 </i>
    <i name="e_0_energy">  -1041.31185302 </i>
   </energy>
  </scstep>
  <scstep>
   <time name="diag">    8.28    8.28</time>
   <time name="diis">   13.94   13.94</time>
   <time name="orth">    4.73    4.73</time>
   <time name="total">   29.08   29.09</time>
   <energy>
    <i name="e_fr_energy">  -1039.17309541 </i>
    <i name="e_wo_entrp">  -1039.17309541 </i>
    <i name="e_0_energy">  -1039.17309541 </i>
   </energy>
  </scstep>
  <scstep>
   <time name="diag">    8.28    8.28</time>
   <time name="diis">   13.09   13.09</time>
   <time name="orth">    4.74    4.74</time>
   <time name="total">   28.24   28.29</time>
   <energy>
    <i name="e_fr_energy">  -1043.68407716 </i>
    <i name="e_wo_entrp">  -1043.68407716 </i>
    <i name="e_0_energy">  -1043.68407716 </i>
   </energy>
  </scstep>
  <scstep>
   <time name="diag">    8.28    8.29</time>
   <time name="diis">   13.82   13.83</time>
   <time name="orth">    4.74    4.75</time>
   <time name="total">   28.98   29.04</time>
   <energy>
    <i name="e_fr_energy">  -1043.63780183 </i>
    <i name="e_wo_entrp">  -1043.63780183 </i>
    <i name="e_0_energy">  -1043.63780183 </i>
   </energy>
  </scstep>
  <scstep>
   <time name="diag">    8.28    8.29</time>
   <time name="diis">   14.79   14.80</time>
   <time name="orth">    4.73    4.73</time>
   <time name="total">   29.94   29.97</time>
   <energy>
    <i name="e_fr_energy">  -1044.26044904 </i>
    <i name="e_wo_entrp">  -1044.26044904 </i>
    <i name="e_0_energy">  -1044.26044904 </i>
   </energy>
  </scstep>
  <scstep>
   <time name="diag">    8.30    8.30</time>
   <time name="diis">   13.84   13.86</time>
   <time name="orth">    4.72    4.73</time>
   <time name="total">   29.00   29.07</time>
   <energy>
    <i name="e_fr_energy">  -1044.98114426 </i>
    <i name="e_wo_entrp">  -1044.98114426 </i>
    <i name="e_0_energy">  -1044.98114426 </i>
   </energy>
  </scstep>
  <scstep>
   <time name="diag">    8.29    8.29</time>
   <time name="diis">   14.24   14.24</time>
   <time name="orth">    4.73    4.73</time>
   <time name="total">   29.40   29.45</time>
   <energy>
    <i name="e_fr_energy">  -1045.33878248 </i>
    <i name="e_wo_entrp">  -1045.33878248 </i>
    <i name="e_0_energy">  -1045.33878248 </i>
   </energy>
  </scstep>
  <scstep>
   <time name="diag">    8.28    8.28</time>
   <time name="diis">   14.80   14.80</time>
   <time name="orth">    4.74    4.74</time>
   <time name="total">   29.97   30.06</time>
   <energy>
    <i name="e_fr_energy">  -1045.43266748 </i>
    <i name="e_wo_entrp">  -1045.43266748 </i>
    <i name="e_0_energy">  -1045.43266748 </i>
   </energy>
  </scstep>
  <scstep>
   <time name="diag">    8.30    8.30</time>
   <time name="diis">   14.54   14.55</time>
   <time name="orth">    4.72    4.72</time>
   <time name="total">   29.72   29.77</time>
   <energy>
    <i name="e_fr_energy">  -1045.47110674 </i>
    <i name="e_wo_entrp">  -1045.47110674 </i>
    <i name="e_0_energy">  -1045.47110674 </i>
   </energy>
  </scstep>
  <scstep>
   <time name="diag">    8.29    8.30</time>
   <time name="diis">   15.50   15.52</time>
   <time name="orth">    4.72    4.73</time>
   <time name="total">   30.66   30.76</time>
   <energy>
    <i name="e_fr_energy">  -1045.47993433 </i>
    <i name="e_wo_entrp">  -1045.47993433 </i>
    <i name="e_0_energy">  -1045.47993433 </i>
   </energy>
  </scstep>
  <scstep>
   <time name="diag">    8.30    8.30</time>
   <time name="diis">   15.22   15.22</time>
   <time name="orth">    4.72    4.72</time>
   <time name="total">   30.39   30.44</time>
   <energy>
    <i name="e_fr_energy">  -1045.48008780 </i>
    <i name="e_wo_entrp">  -1045.48008780 </i>
    <i name="e_0_energy">  -1045.48008780 </i>
   </energy>
  </scstep>
  <scstep>
   <time name="diag">    8.29    8.30</time>
   <time name="diis">   13.81   13.83</time>
   <time name="orth">    4.74    4.74</time>
   <time name="total">   28.99   29.13</time>
   <energy>
    <i name="e_fr_energy">  -1045.48029617 </i>
    <i name="e_wo_entrp">  -1045.48029617 </i>
    <i name="e_0_energy">  -1045.48029617 </i>
   </energy>
  </scstep>
  <scstep>
   <time name="diag">    8.30    8.30</time>
   <time name="diis">   10.99   10.99</time>
   <time name="orth">    4.74    4.74</time>
   <time name="total">   24.59   24.60</time>
   <energy>
    <i name="alphaZ">   5618.33838386 </i>
    <i name="ewald"> -62818.70701484 </i>
    <i name="hartreedc"> -16815.24804348 </i>
    <i name="XCdc">   3177.96666070 </i>
    <i name="pawpsdc"> 110724.31917708 </i>
    <i name="pawaedc">-109926.44095931 </i>
    <i name="eentropy">     -0.00000000 </i>
    <i name="bandstr">  -7055.88471727 </i>
    <i name="atom">  76050.17612637 </i>
    <i name="e_fr_energy">  -1045.48038689 </i>
    <i name="e_wo_entrp">  -1045.48038689 </i>
    <i name="e_0_energy">  -1045.48038689 </i>
   </energy>
  </scstep>
  <structure>
   <crystal>
    <varray name="basis" >
     <v>      11.19900000       0.00000000       0.00000000 </v>
     <v>       0.00000000      11.19900000       0.00000000 </v>
     <v>       0.00000000       0.00000000      15.98300000 </v>
    </varray>
    <i name="volume">   2004.54951678 </i>
    <varray name="rec_basis" >
     <v>       0.08929369       0.00000000       0.00000000 </v>
     <v>       0.00000000       0.08929369       0.00000000 </v>
     <v>       0.00000000       0.00000000       0.06256648 </v>
    </varray>
   </crystal>
   <varray name="positions" >
    <v>       0.00000000       0.25000000       0.12500000 </v>
    <v>       0.00000000       0.25000000       0.62500000 </v>
    <v>       0.00000000       0.75000000       0.12500000 </v>
    <v>       0.00000000       0.75000000       0.62500000 </v>
    <v>       0.50000000       0.25000000       0.12500000 </v>
    <v>       0.50000000       0.25000000       0.62500000 </v>
    <v>       0.50000000       0.75000000       0.12500000 </v>
    <v>       0.50000000       0.75000000       0.62500000 </v>
    <v>       0.00000000       0.25000000       0.37500000 </v>
    <v>       0.00000000       0.25000000       0.87500000 </v>
    <v>       0.00000000       0.75000000       0.37500000 </v>
    <v>       0.00000000       0.75000000       0.87500000 </v>
    <v>       0.50000000       0.25000000       0.37500000 </v>
    <v>       0.50000000       0.25000000       0.87500000 </v>
    <v>       0.50000000       0.75000000       0.37500000 </v>
    <v>       0.50000000       0.75000000       0.87500000 </v>
    <v>       0.25000000       0.00000000       0.12500000 </v>
    <v>       0.25000000       0.00000000       0.62500000 </v>
    <v>       0.25000000       0.50000000       0.12500000 </v>
    <v>       0.25000000       0.50000000       0.62500000 </v>
    <v>       0.75000000       0.00000000       0.12500000 </v>
    <v>       0.75000000       0.00000000       0.62500000 </v>
    <v>       0.75000000       0.50000000       0.12500000 </v>
    <v>       0.75000000       0.50000000       0.62500000 </v>
    <v>       0.25000000       0.00000000       0.37500000 </v>
    <v>       0.25000000       0.00000000       0.87500000 </v>
    <v>       0.25000000       0.50000000       0.37500000 </v>
    <v>       0.25000000       0.50000000       0.87500000 </v>
    <v>       0.75000000       0.00000000       0.37500000 </v>
    <v>       0.75000000       0.00000000       0.87500000 </v>
    <v>       0.75000000       0.50000000       0.37500000 </v>
    <v>       0.75000000       0.50000000       0.87500000 </v>
    <v>       0.25000000       0.25000000       0.00000000 </v>
    <v>       0.25000000       0.25000000       0.50000000 </v>
    <v>       0.25000000       0.75000000       0.00000000 </v>
    <v>       0.25000000       0.75000000       0.50000000 </v>
    <v>       0.75000000       0.25000000       0.00000000 </v>
    <v>       0.75000000       0.25000000       0.50000000 </v>
    <v>       0.75000000       0.75000000       0.00000000 </v>
    <v>       0.75000000       0.75000000       0.50000000 </v>
    <v>       0.25000000       0.25000000       0.25000000 </v>
    <v>       0.25000000       0.25000000       0.75000000 </v>
    <v>       0.25000000       0.75000000       0.25000000 </v>
    <v>       0.25000000       0.75000000       0.75000000 </v>
    <v>       0.75000000       0.25000000       0.25000000 </v>
    <v>       0.75000000       0.25000000       0.75000000 </v>
    <v>       0.75000000       0.75000000       0.25000000 </v>
    <v>       0.75000000       0.75000000       0.75000000 </v>
    <v>       0.00000000       0.00000000       0.25000000 </v>
    <v>       0.00000000       0.00000000       0.00000000 </v>
    <v>       0.50000000       0.00000000       0.25000000 </v>
    <v>       0.50000000       0.00000000       0.00000000 </v>
    <v>       0.00000000       0.50000000       0.25000000 </v>
    <v>       0.00000000       0.50000000       0.00000000 </v>
    <v>       0.50000000       0.50000000       0.25000000 </v>
    <v>       0.00000000       0.00000000       0.75000000 </v>
    <v>       0.00000000       0.00000000       0.50000000 </v>
    <v>       0.50000000       0.00000000       0.75000000 </v>
    <v>       0.50000000       0.00000000       0.50000000 </v>
    <v>       0.00000000       0.50000000       0.75000000 </v>
    <v>       0.00000000       0.50000000       0.50000000 </v>
    <v>       0.50000000       0.50000000       0.75000000 </v>
    <v>       0.50000000       0.50000000       0.50000000 </v>
    <v>       0.50000000       0.50000000       0.00000000 </v>
    <v>       0.10900000       0.14100000       0.25000000 </v>
    <v>       0.10900000       0.14100000       0.75000000 </v>
    <v>       0.10900000       0.64100000       0.25000000 </v>
    <v>       0.10900000       0.64100000       0.75000000 </v>
    <v>       0.60900000       0.14100000       0.25000000 </v>
    <v>       0.60900000       0.14100000       0.75000000 </v>
    <v>       0.60900000       0.64100000       0.25000000 </v>
    <v>       0.60900000       0.64100000       0.75000000 </v>
    <v>       0.39100000       0.35900000       0.25000000 </v>
    <v>       0.39100000       0.35900000       0.75000000 </v>
    <v>       0.39100000       0.85900000       0.25000000 </v>
    <v>       0.39100000       0.85900000       0.75000000 </v>
    <v>       0.89100000       0.35900000       0.25000000 </v>
    <v>       0.89100000       0.35900000       0.75000000 </v>
    <v>       0.89100000       0.85900000       0.25000000 </v>
    <v>       0.89100000       0.85900000       0.75000000 </v>
    <v>       0.35900000       0.10900000       0.25000000 </v>
    <v>       0.35900000       0.10900000       0.75000000 </v>
    <v>       0.35900000       0.60900000       0.25000000 </v>
    <v>       0.35900000       0.60900000       0.75000000 </v>
    <v>       0.85900000       0.10900000       0.25000000 </v>
    <v>       0.85900000       0.10900000       0.75000000 </v>
    <v>       0.85900000       0.60900000       0.25000000 </v>
    <v>       0.85900000       0.60900000       0.75000000 </v>
    <v>       0.14100000       0.39100000       0.25000000 </v>
    <v>       0.14100000       0.39100000       0.75000000 </v>
    <v>       0.14100000       0.89100000       0.25000000 </v>
    <v>       0.14100000       0.89100000       0.75000000 </v>
    <v>       0.64100000       0.39100000       0.25000000 </v>
    <v>       0.64100000       0.39100000       0.75000000 </v>
    <v>       0.64100000       0.89100000       0.25000000 </v>
    <v>       0.64100000       0.89100000       0.75000000 </v>
    <v>       0.35900000       0.39100000       0.00000000 </v>
    <v>       0.35900000       0.39100000       0.50000000 </v>
    <v>       0.35900000       0.89100000       0.00000000 </v>
    <v>       0.35900000       0.89100000       0.50000000 </v>
    <v>       0.85900000       0.39100000       0.00000000 </v>
    <v>       0.85900000       0.39100000       0.50000000 </v>
    <v>       0.85900000       0.89100000       0.00000000 </v>
    <v>       0.85900000       0.89100000       0.50000000 </v>
    <v>       0.14100000       0.10900000       0.00000000 </v>
    <v>       0.14100000       0.10900000       0.50000000 </v>
    <v>       0.14100000       0.60900000       0.00000000 </v>
    <v>       0.14100000       0.60900000       0.50000000 </v>
    <v>       0.64100000       0.10900000       0.00000000 </v>
    <v>       0.64100000       0.10900000       0.50000000 </v>
    <v>       0.64100000       0.60900000       0.00000000 </v>
    <v>       0.64100000       0.60900000       0.50000000 </v>
    <v>       0.10900000       0.35900000       0.00000000 </v>
    <v>       0.10900000       0.35900000       0.50000000 </v>
    <v>       0.10900000       0.85900000       0.00000000 </v>
    <v>       0.10900000       0.85900000       0.50000000 </v>
    <v>       0.60900000       0.35900000       0.00000000 </v>
    <v>       0.60900000       0.35900000       0.50000000 </v>
    <v>       0.60900000       0.85900000       0.00000000 </v>
    <v>       0.60900000       0.85900000       0.50000000 </v>
    <v>       0.39100000       0.14100000       0.00000000 </v>
    <v>       0.39100000       0.14100000       0.50000000 </v>
    <v>       0.39100000       0.64100000       0.00000000 </v>
    <v>       0.39100000       0.64100000       0.50000000 </v>
    <v>       0.89100000       0.14100000       0.00000000 </v>
    <v>       0.89100000       0.14100000       0.50000000 </v>
    <v>       0.89100000       0.64100000       0.00000000 </v>
    <v>       0.89100000       0.64100000       0.50000000 </v>
    <v>       0.00000000       0.00000000       0.37500000 </v>
    <v>       0.00000000       0.00000000       0.87500000 </v>
    <v>       0.00000000       0.50000000       0.37500000 </v>
    <v>       0.00000000       0.50000000       0.87500000 </v>
    <v>       0.50000000       0.00000000       0.37500000 </v>
    <v>       0.50000000       0.00000000       0.87500000 </v>
    <v>       0.50000000       0.50000000       0.37500000 </v>
    <v>       0.50000000       0.50000000       0.87500000 </v>
    <v>       0.25000000       0.25000000       0.37500000 </v>
    <v>       0.25000000       0.25000000       0.87500000 </v>
    <v>       0.25000000       0.75000000       0.37500000 </v>
    <v>       0.25000000       0.75000000       0.87500000 </v>
    <v>       0.75000000       0.25000000       0.37500000 </v>
    <v>       0.75000000       0.25000000       0.87500000 </v>
    <v>       0.75000000       0.75000000       0.37500000 </v>
    <v>       0.75000000       0.75000000       0.87500000 </v>
    <v>       0.25000000       0.25000000       0.12500000 </v>
    <v>       0.25000000       0.25000000       0.62500000 </v>
    <v>       0.25000000       0.75000000       0.12500000 </v>
    <v>       0.25000000       0.75000000       0.62500000 </v>
    <v>       0.75000000       0.25000000       0.12500000 </v>
    <v>       0.75000000       0.25000000       0.62500000 </v>
    <v>       0.75000000       0.75000000       0.12500000 </v>
    <v>       0.75000000       0.75000000       0.62500000 </v>
   </varray>
  </structure>
  <varray name="forces" >
   <v>       0.00000000      -0.00000000      -0.00000000 </v>
   <v>       0.00000000      -0.00000000      -0.00000000 </v>
   <v>       0.00000000      -0.00000000      -0.00000000 </v>
   <v>       0.00000000      -0.00000000      -0.00000000 </v>
   <v>       0.00000000      -0.00000000      -0.00000000 </v>
   <v>       0.00000000      -0.00000000      -0.00000000 </v>
   <v>       0.00000000      -0.00000000      -0.00000000 </v>
   <v>       0.00000000      -0.00000000      -0.00000000 </v>
   <v>       0.00000000      -0.00000000      -0.00000000 </v>
   <v>       0.00000000      -0.00000000      -0.00000000 </v>
   <v>       0.00000000      -0.00000000      -0.00000000 </v>
   <v>       0.00000000      -0.00000000      -0.00000000 </v>
   <v>       0.00000000      -0.00000000      -0.00000000 </v>
   <v>       0.00000000      -0.00000000      -0.00000000 </v>
   <v>       0.00000000      -0.00000000      -0.00000000 </v>
   <v>       0.00000000      -0.00000000      -0.00000000 </v>
   <v>       0.00000000      -0.00000000      -0.00000000 </v>
   <v>       0.00000000      -0.00000000      -0.00000000 </v>
   <v>       0.00000000      -0.00000000      -0.00000000 </v>
   <v>       0.00000000      -0.00000000      -0.00000000 </v>
   <v>       0.00000000      -0.00000000      -0.00000000 </v>
   <v>       0.00000000      -0.00000000      -0.00000000 </v>
   <v>       0.00000000      -0.00000000      -0.00000000 </v>
   <v>       0.00000000      -0.00000000      -0.00000000 </v>
   <v>       0.00000000      -0.00000000      -0.00000000 </v>
   <v>       0.00000000      -0.00000000      -0.00000000 </v>
   <v>       0.00000000      -0.00000000      -0.00000000 </v>
   <v>       0.00000000      -0.00000000      -0.00000000 </v>
   <v>       0.00000000      -0.00000000      -0.00000000 </v>
   <v>       0.00000000      -0.00000000      -0.00000000 </v>
   <v>       0.00000000      -0.00000000      -0.00000000 </v>
   <v>       0.00000000      -0.00000000      -0.00000000 </v>
   <v>       0.00000000      -0.00000000       0.06753790 </v>
   <v>       0.00000000      -0.00000000       0.06753790 </v>
   <v>       0.00000000      -0.00000000       0.06753790 </v>
   <v>       0.00000000      -0.00000000       0.06753790 </v>
   <v>       0.00000000      -0.00000000       0.06753790 </v>
   <v>       0.00000000      -0.00000000       0.06753790 </v>
   <v>       0.00000000      -0.00000000       0.06753790 </v>
   <v>       0.00000000      -0.00000000       0.06753790 </v>
   <v>       0.00000000      -0.00000000      -0.06753790 </v>
   <v>       0.00000000      -0.00000000      -0.06753790 </v>
   <v>       0.00000000      -0.00000000      -0.06753790 </v>
   <v>       0.00000000      -0.00000000      -0.06753790 </v>
   <v>       0.00000000      -0.00000000      -0.06753790 </v>
   <v>       0.00000000      -0.00000000      -0.06753790 </v>
   <v>       0.00000000      -0.00000000      -0.06753790 </v>
   <v>       0.00000000      -0.00000000      -0.06753790 </v>
   <v>       0.00000000      -0.00000000       3.33002823 </v>
   <v>       0.00000000      -0.00000000      -3.33002823 </v>
   <v>       0.00000000      -0.00000000       3.33002823 </v>
   <v>       0.00000000      -0.00000000      -3.33002823 </v>
   <v>       0.00000000      -0.00000000       3.33002823 </v>
   <v>       0.00000000      -0.00000000      -3.33002823 </v>
   <v>       0.00000000      -0.00000000       3.33002823 </v>
   <v>       0.00000000      -0.00000000       3.33002823 </v>
   <v>       0.00000000      -0.00000000      -3.33002823 </v>
   <v>       0.00000000      -0.00000000       3.33002823 </v>
   <v>       0.00000000      -0.00000000      -3.33002823 </v>
   <v>       0.00000000      -0.00000000       3.33002823 </v>
   <v>       0.00000000      -0.00000000      -3.33002823 </v>
   <v>       0.00000000      -0.00000000       3.33002823 </v>
   <v>       0.00000000      -0.00000000      -3.33002823 </v>
   <v>       0.00000000      -0.00000000      -3.33002823 </v>
   <v>      -0.30954618      -0.39109107      -1.03179721 </v>
   <v>      -0.30954618      -0.39109107      -1.03179721 </v>
   <v>      -0.30954618      -0.39109107      -1.03179721 </v>
   <v>      -0.30954618      -0.39109107      -1.03179721 </v>
   <v>      -0.30954618      -0.39109107      -1.03179721 </v>
   <v>      -0.30954618      -0.39109107      -1.03179721 </v>
   <v>      -0.30954618      -0.39109107      -1.03179721 </v>
   <v>      -0.30954618      -0.39109107      -1.03179721 </v>
   <v>       0.30954618       0.39109107      -1.03179721 </v>
   <v>       0.30954618       0.39109107      -1.03179721 </v>
   <v>       0.30954618       0.39109107      -1.03179721 </v>
   <v>       0.30954618       0.39109107      -1.03179721 </v>
   <v>       0.30954618       0.39109107      -1.03179721 </v>
   <v>       0.30954618       0.39109107      -1.03179721 </v>
   <v>       0.30954618       0.39109107      -1.03179721 </v>
   <v>       0.30954618       0.39109107      -1.03179721 </v>
   <v>       0.39109107      -0.30954618      -1.03179721 </v>
   <v>       0.39109107      -0.30954618      -1.03179721 </v>
   <v>       0.39109107      -0.30954618      -1.03179721 </v>
   <v>       0.39109107      -0.30954618      -1.03179721 </v>
   <v>       0.39109107      -0.30954618      -1.03179721 </v>
   <v>       0.39109107      -0.30954618      -1.03179721 </v>
   <v>       0.39109107      -0.30954618      -1.03179721 </v>
   <v>       0.39109107      -0.30954618      -1.03179721 </v>
   <v>      -0.39109107       0.30954618      -1.03179721 </v>
   <v>      -0.39109107       0.30954618      -1.03179721 </v>
   <v>      -0.39109107       0.30954618      -1.03179721 </v>
   <v>      -0.39109107       0.30954618      -1.03179721 </v>
   <v>      -0.39109107       0.30954618      -1.03179721 </v>
   <v>      -0.39109107       0.30954618      -1.03179721 </v>
   <v>      -0.39109107       0.30954618      -1.03179721 </v>
   <v>      -0.39109107       0.30954618      -1.03179721 </v>
   <v>       0.39109107       0.30954618       1.03179721 </v>
   <v>       0.39109107       0.30954618       1.03179721 </v>
   <v>       0.39109107       0.30954618       1.03179721 </v>
   <v>       0.39109107       0.30954618       1.03179721 </v>
   <v>       0.39109107       0.30954618       1.03179721 </v>
   <v>       0.39109107       0.30954618       1.03179721 </v>
   <v>       0.39109107       0.30954618       1.03179721 </v>
   <v>       0.39109107       0.30954618       1.03179721 </v>
   <v>      -0.39109107      -0.30954618       1.03179721 </v>
   <v>      -0.39109107      -0.30954618       1.03179721 </v>
   <v>      -0.39109107      -0.30954618       1.03179721 </v>
   <v>      -0.39109107      -0.30954618       1.03179721 </v>
   <v>      -0.39109107      -0.30954618       1.03179721 </v>
   <v>      -0.39109107      -0.30954618       1.03179721 </v>
   <v>      -0.39109107      -0.30954618       1.03179721 </v>
   <v>      -0.39109107      -0.30954618       1.03179721 </v>
   <v>      -0.30954618       0.39109107       1.03179721 </v>
   <v>      -0.30954618       0.39109107       1.03179721 </v>
   <v>      -0.30954618       0.39109107       1.03179721 </v>
   <v>      -0.30954618       0.39109107       1.03179721 </v>
   <v>      -0.30954618       0.39109107       1.03179721 </v>
   <v>      -0.30954618       0.39109107       1.03179721 </v>
   <v>      -0.30954618       0.39109107       1.03179721 </v>
   <v>      -0.30954618       0.39109107       1.03179721 </v>
   <v>       0.30954618      -0.39109107       1.03179721 </v>
   <v>       0.30954618      -0.39109107       1.03179721 </v>
   <v>       0.30954618      -0.39109107       1.03179721 </v>
   <v>       0.30954618      -0.39109107       1.03179721 </v>
   <v>       0.30954618      -0.39109107       1.03179721 </v>
   <v>       0.30954618      -0.39109107       1.03179721 </v>
   <v>       0.30954618      -0.39109107       1.03179721 </v>
   <v>       0.30954618      -0.39109107       1.03179721 </v>
   <v>       0.00000000      -0.00000000      -0.00000000 </v>
   <v>       0.00000000      -0.00000000      -0.00000000 </v>
   <v>       0.00000000      -0.00000000      -0.00000000 </v>
   <v>       0.00000000      -0.00000000      -0.00000000 </v>
   <v>       0.00000000      -0.00000000      -0.00000000 </v>
   <v>       0.00000000      -0.00000000      -0.00000000 </v>
   <v>       0.00000000      -0.00000000      -0.00000000 </v>
   <v>       0.00000000      -0.00000000      -0.00000000 </v>
   <v>       0.00000000      -0.00000000      -0.00000000 </v>
   <v>       0.00000000      -0.00000000      -0.00000000 </v>
   <v>       0.00000000      -0.00000000      -0.00000000 </v>
   <v>       0.00000000      -0.00000000      -0.00000000 </v>
   <v>       0.00000000      -0.00000000      -0.00000000 </v>
   <v>       0.00000000      -0.00000000      -0.00000000 </v>
   <v>       0.00000000      -0.00000000      -0.00000000 </v>
   <v>       0.00000000      -0.00000000      -0.00000000 </v>
   <v>       0.00000000      -0.00000000      -0.00000000 </v>
   <v>       0.00000000      -0.00000000      -0.00000000 </v>
   <v>       0.00000000      -0.00000000      -0.00000000 </v>
   <v>       0.00000000      -0.00000000      -0.00000000 </v>
   <v>       0.00000000      -0.00000000      -0.00000000 </v>
   <v>       0.00000000      -0.00000000      -0.00000000 </v>
   <v>       0.00000000      -0.00000000      -0.00000000 </v>
   <v>       0.00000000      -0.00000000      -0.00000000 </v>
  </varray>
  <varray name="stress" >
   <v>      -7.00862872       0.00000000       0.00000000 </v>
   <v>       0.00000000      -7.00862872      -0.00000000 </v>
   <v>       0.00000000       0.00000000     -43.52507318 </v>
  </varray>
  <energy>
   <i name="e_fr_energy">  -1045.48038689 </i>
   <i name="e_wo_entrp">  -1045.48038689 </i>
   <i name="e_0_energy">     -0.00000000 </i>
  </energy>
  <time name="totalsc">  897.92  900.29</time>
 </calculation>
 <calculation>
  <scstep>
   <time name="dav">   76.28   76.33</time>
   <time name="total">   78.40   78.46</time>
   <energy>
    <i name="alphaZ">   5749.10714237 </i>
    <i name="ewald"> -62969.56166296 </i>
    <i name="hartreedc"> -17264.11397363 </i>
    <i name="XCdc">   3323.58852409 </i>
    <i name="pawpsdc"> 110728.77581758 </i>
    <i name="pawaedc">-109930.90432653 </i>
    <i name="eentropy">     -0.00000000 </i>
    <i name="bandstr">  -6589.08839328 </i>
    <i name="atom">  76050.17612637 </i>
    <i name="e_fr_energy">   -902.02074600 </i>
    <i name="e_wo_entrp">   -902.02074600 </i>
    <i name="e_0_energy">   -902.02074600 </i>
   </energy>
  </scstep>
  <scstep>
   <time name="diag">    8.28    8.28</time>
   <time name="diis">   13.54   13.55</time>
   <time name="orth">    4.72    4.72</time>
   <time name="total">   28.67   28.70</time>
   <energy>
    <i name="e_fr_energy">  -1049.24721783 </i>
    <i name="e_wo_entrp">  -1049.24721783 </i>
    <i name="e_0_energy">  -1049.24721783 </i>
   </energy>
  </scstep>
  <scstep>
   <time name="diag">    8.30    8.30</time>
   <time name="diis">   13.48   13.48</time>
   <time name="orth">    4.71    4.72</time>
   <time name="total">   28.62   28.64</time>
   <energy>
    <i name="e_fr_energy">  -1052.67968729 </i>
    <i name="e_wo_entrp">  -1052.67968729 </i>
    <i name="e_0_energy">  -1052.67968729 </i>
   </energy>
  </scstep>
  <scstep>
   <time name="diag">    8.29    8.29</time>
   <time name="diis">   13.42   13.42</time>
   <time name="orth">    4.71    4.71</time>
   <time name="total">   28.55   28.59</time>
   <energy>
    <i name="e_fr_energy">  -1052.33900860 </i>
    <i name="e_wo_entrp">  -1052.33900860 </i>
    <i name="e_0_energy">  -1052.33900860 </i>
   </energy>
  </scstep>
  <scstep>
   <time name="diag">    8.27    8.27</time>
   <time name="diis">   14.30   14.30</time>
   <time name="orth">    4.73    4.73</time>
   <time name="total">   29.43   29.46</time>
   <energy>
    <i name="e_fr_energy">  -1052.23534908 </i>
    <i name="e_wo_entrp">  -1052.23534908 </i>
    <i name="e_0_energy">  -1052.23534908 </i>
   </energy>
  </scstep>
  <scstep>
   <time name="diag">    8.27    8.28</time>
   <time name="diis">   14.74   14.75</time>
   <time name="orth">    4.74    4.74</time>
   <time name="total">   29.87   29.93</time>
   <energy>
    <i name="e_fr_energy">  -1052.20478183 </i>
    <i name="e_wo_entrp">  -1052.20478183 </i>
    <i name="e_0_energy">  -1052.20478183 </i>
   </energy>
  </scstep>
  <scstep>
   <time name="diag">    8.28    8.29</time>
   <time name="diis">   16.30   16.30</time>
   <time name="orth">    4.74    4.74</time>
   <time name="total">   31.45   31.53</time>
   <energy>
    <i name="e_fr_energy">  -1052.22977165 </i>
    <i name="e_wo_entrp">  -1052.22977165 </i>
    <i name="e_0_energy">  -1052.22977165 </i>
   </energy>
  </scstep>
  <scstep>
   <time name="diag">    8.31    8.32</time>
   <time name="diis">   17.33   17.33</time>
   <time name="orth">    4.74    4.74</time>
   <time name="total">   32.52   32.61</time>
   <energy>
    <i name="e_fr_energy">  -1052.23076034 </i>
    <i name="e_wo_entrp">  -1052.23076034 </i>
    <i name="e_0_energy">  -1052.23076034 </i>
   </energy>
  </scstep>
  <scstep>
   <time name="diag">    8.31    8.31</time>
   <time name="diis">   15.54   15.55</time>
   <time name="orth">    4.73    4.73</time>
   <time name="total">   30.71   30.74</time>
   <energy>
    <i name="e_fr_energy">  -1052.22697957 </i>
    <i name="e_wo_entrp">  -1052.22697957 </i>
    <i name="e_0_energy">  -1052.22697957 </i>
   </energy>
  </scstep>
  <scstep>
   <time name="diag">    8.28    8.29</time>
   <time name="diis">   15.34   15.37</time>
   <time name="orth">    4.74    4.73</time>
   <time name="total">   30.49   30.55</time>
   <energy>
    <i name="e_fr_energy">  -1052.22707843 </i>
    <i name="e_wo_entrp">  -1052.22707843 </i>
    <i name="e_0_energy">  -1052.22707843 </i>
   </energy>
  </scstep>
  <scstep>
   <time name="diag">    8.28    8.28</time>
   <time name="diis">   15.14   15.17</time>
   <time name="orth">    4.74    4.74</time>
   <time name="total">   30.29   30.34</time>
   <energy>
    <i name="e_fr_energy">  -1052.22698443 </i>
    <i name="e_wo_entrp">  -1052.22698443 </i>
    <i name="e_0_energy">  -1052.22698443 </i>
   </energy>
  </scstep>
  <scstep>
   <time name="diag">    8.26    8.30</time>
   <time name="diis">   11.79   11.79</time>
   <time name="orth">    4.73    4.73</time>
   <time name="total">   25.36   25.45</time>
   <energy>
    <i name="alphaZ">   5749.10714237 </i>
    <i name="ewald"> -62969.56166296 </i>
    <i name="hartreedc"> -16932.61339582 </i>
    <i name="XCdc">   3192.15771695 </i>
    <i name="pawpsdc"> 116630.22155224 </i>
    <i name="pawaedc">-115836.56117173 </i>
    <i name="eentropy">     -0.00000000 </i>
    <i name="bandstr">  -6935.15331505 </i>
    <i name="atom">  76050.17612637 </i>
    <i name="e_fr_energy">  -1052.22700763 </i>
    <i name="e_wo_entrp">  -1052.22700763 </i>
    <i name="e_0_energy">  -1052.22700763 </i>
   </energy>
  </scstep>
  <structure>
   <crystal>
    <varray name="basis" >
     <v>      11.16783220       0.00000000       0.00000000 </v>
     <v>       0.00000000      11.16783220      -0.00000000 </v>
     <v>       0.00000000       0.00000000      15.70675678 </v>
    </varray>
    <i name="volume">   1958.95418429 </i>
    <varray name="rec_basis" >
     <v>       0.08954289       0.00000000       0.00000000 </v>
     <v>       0.00000000       0.08954289       0.00000000 </v>
     <v>       0.00000000       0.00000000       0.06366687 </v>
    </varray>
   </crystal>
   <varray name="positions" >
    <v>       0.00000000       0.25000000       0.12500000 </v>
    <v>       0.00000000       0.25000000       0.62500000 </v>
    <v>       0.00000000       0.75000000       0.12500000 </v>
    <v>       0.00000000       0.75000000       0.62500000 </v>
    <v>       0.50000000       0.25000000       0.12500000 </v>
    <v>       0.50000000       0.25000000       0.62500000 </v>
    <v>       0.50000000       0.75000000       0.12500000 </v>
    <v>       0.50000000       0.75000000       0.62500000 </v>
    <v>       0.00000000       0.25000000       0.37500000 </v>
    <v>       0.00000000       0.25000000       0.87500000 </v>
    <v>       0.00000000       0.75000000       0.37500000 </v>
    <v>       0.00000000       0.75000000       0.87500000 </v>
    <v>       0.50000000       0.25000000       0.37500000 </v>
    <v>       0.50000000       0.25000000       0.87500000 </v>
    <v>       0.50000000       0.75000000       0.37500000 </v>
    <v>       0.50000000       0.75000000       0.87500000 </v>
    <v>       0.25000000      -0.00000000       0.12500000 </v>
    <v>       0.25000000      -0.00000000       0.62500000 </v>
    <v>       0.25000000       0.50000000       0.12500000 </v>
    <v>       0.25000000       0.50000000       0.62500000 </v>
    <v>       0.75000000      -0.00000000       0.12500000 </v>
    <v>       0.75000000      -0.00000000       0.62500000 </v>
    <v>       0.75000000       0.50000000       0.12500000 </v>
    <v>       0.75000000       0.50000000       0.62500000 </v>
    <v>       0.25000000      -0.00000000       0.37500000 </v>
    <v>       0.25000000      -0.00000000       0.87500000 </v>
    <v>       0.25000000       0.50000000       0.37500000 </v>
    <v>       0.25000000       0.50000000       0.87500000 </v>
    <v>       0.75000000      -0.00000000       0.37500000 </v>
    <v>       0.75000000      -0.00000000       0.87500000 </v>
    <v>       0.75000000       0.50000000       0.37500000 </v>
    <v>       0.75000000       0.50000000       0.87500000 </v>
    <v>       0.25000000       0.25000000       0.00020385 </v>
    <v>       0.25000000       0.25000000       0.50020385 </v>
    <v>       0.25000000       0.75000000       0.00020385 </v>
    <v>       0.25000000       0.75000000       0.50020385 </v>
    <v>       0.75000000       0.25000000       0.00020385 </v>
    <v>       0.75000000       0.25000000       0.50020385 </v>
    <v>       0.75000000       0.75000000       0.00020385 </v>
    <v>       0.75000000       0.75000000       0.50020385 </v>
    <v>       0.25000000       0.25000000       0.24979615 </v>
    <v>       0.25000000       0.25000000       0.74979615 </v>
    <v>       0.25000000       0.75000000       0.24979615 </v>
    <v>       0.25000000       0.75000000       0.74979615 </v>
    <v>       0.75000000       0.25000000       0.24979615 </v>
    <v>       0.75000000       0.25000000       0.74979615 </v>
    <v>       0.75000000       0.75000000       0.24979615 </v>
    <v>       0.75000000       0.75000000       0.74979615 </v>
    <v>       0.00000000      -0.00000000       0.26005127 </v>
    <v>       0.00000000      -0.00000000      -0.01005127 </v>
    <v>       0.50000000      -0.00000000       0.26005127 </v>
    <v>       0.50000000      -0.00000000      -0.01005127 </v>
    <v>       0.00000000       0.50000000       0.26005127 </v>
    <v>       0.00000000       0.50000000      -0.01005127 </v>
    <v>       0.50000000       0.50000000       0.26005127 </v>
    <v>       0.00000000      -0.00000000       0.76005127 </v>
    <v>       0.00000000      -0.00000000       0.48994873 </v>
    <v>       0.50000000      -0.00000000       0.76005127 </v>
    <v>       0.50000000      -0.00000000       0.48994873 </v>
    <v>       0.00000000       0.50000000       0.76005127 </v>
    <v>       0.00000000       0.50000000       0.48994873 </v>
    <v>       0.50000000       0.50000000       0.76005127 </v>
    <v>       0.50000000       0.50000000       0.48994873 </v>
    <v>       0.50000000       0.50000000      -0.01005127 </v>
    <v>       0.10766655       0.13931527       0.24688565 </v>
    <v>       0.10766655       0.13931527       0.74688565 </v>
    <v>       0.10766655       0.63931527       0.24688565 </v>
    <v>       0.10766655       0.63931527       0.74688565 </v>
    <v>       0.60766655       0.13931527       0.24688565 </v>
    <v>       0.60766655       0.13931527       0.74688565 </v>
    <v>       0.60766655       0.63931527       0.24688565 </v>
    <v>       0.60766655       0.63931527       0.74688565 </v>
    <v>       0.39233345       0.36068473       0.24688565 </v>
    <v>       0.39233345       0.36068473       0.74688565 </v>
    <v>       0.39233345       0.86068473       0.24688565 </v>
    <v>       0.39233345       0.86068473       0.74688565 </v>
    <v>       0.89233345       0.36068473       0.24688565 </v>
    <v>       0.89233345       0.36068473       0.74688565 </v>
    <v>       0.89233345       0.86068473       0.24688565 </v>
    <v>       0.89233345       0.86068473       0.74688565 </v>
    <v>       0.36068473       0.10766655       0.24688565 </v>
    <v>       0.36068473       0.10766655       0.74688565 </v>
    <v>       0.36068473       0.60766655       0.24688565 </v>
    <v>       0.36068473       0.60766655       0.74688565 </v>
    <v>       0.86068473       0.10766655       0.24688565 </v>
    <v>       0.86068473       0.10766655       0.74688565 </v>
    <v>       0.86068473       0.60766655       0.24688565 </v>
    <v>       0.86068473       0.60766655       0.74688565 </v>
    <v>       0.13931527       0.39233345       0.24688565 </v>
    <v>       0.13931527       0.39233345       0.74688565 </v>
    <v>       0.13931527       0.89233345       0.24688565 </v>
    <v>       0.13931527       0.89233345       0.74688565 </v>
    <v>       0.63931527       0.39233345       0.24688565 </v>
    <v>       0.63931527       0.39233345       0.74688565 </v>
    <v>       0.63931527       0.89233345       0.24688565 </v>
    <v>       0.63931527       0.89233345       0.74688565 </v>
    <v>       0.36068473       0.39233345       0.00311435 </v>
    <v>       0.36068473       0.39233345       0.50311435 </v>
    <v>       0.36068473       0.89233345       0.00311435 </v>
    <v>       0.36068473       0.89233345       0.50311435 </v>
    <v>       0.86068473       0.39233345       0.00311435 </v>
    <v>       0.86068473       0.39233345       0.50311435 </v>
    <v>       0.86068473       0.89233345       0.00311435 </v>
    <v>       0.86068473       0.89233345       0.50311435 </v>
    <v>       0.13931527       0.10766655       0.00311435 </v>
    <v>       0.13931527       0.10766655       0.50311435 </v>
    <v>       0.13931527       0.60766655       0.00311435 </v>
    <v>       0.13931527       0.60766655       0.50311435 </v>
    <v>       0.63931527       0.10766655       0.00311435 </v>
    <v>       0.63931527       0.10766655       0.50311435 </v>
    <v>       0.63931527       0.60766655       0.00311435 </v>
    <v>       0.63931527       0.60766655       0.50311435 </v>
    <v>       0.10766655       0.36068473       0.00311435 </v>
    <v>       0.10766655       0.36068473       0.50311435 </v>
    <v>       0.10766655       0.86068473       0.00311435 </v>
    <v>       0.10766655       0.86068473       0.50311435 </v>
    <v>       0.60766655       0.36068473       0.00311435 </v>
    <v>       0.60766655       0.36068473       0.50311435 </v>
    <v>       0.60766655       0.86068473       0.00311435 </v>
    <v>       0.60766655       0.86068473       0.50311435 </v>
    <v>       0.39233345       0.13931527       0.00311435 </v>
    <v>       0.39233345       0.13931527       0.50311435 </v>
    <v>       0.39233345       0.63931527       0.00311435 </v>
    <v>       0.39233345       0.63931527       0.50311435 </v>
    <v>       0.89233345       0.13931527       0.00311435 </v>
    <v>       0.89233345       0.13931527       0.50311435 </v>
    <v>       0.89233345       0.63931527       0.00311435 </v>
    <v>       0.89233345       0.63931527       0.50311435 </v>
    <v>       0.00000000      -0.00000000       0.37500000 </v>
    <v>       0.00000000      -0.00000000       0.87500000 </v>
    <v>       0.00000000       0.50000000       0.37500000 </v>
    <v>       0.00000000       0.50000000       0.87500000 </v>
    <v>       0.50000000      -0.00000000       0.37500000 </v>
    <v>       0.50000000      -0.00000000       0.87500000 </v>
    <v>       0.50000000       0.50000000       0.37500000 </v>
    <v>       0.50000000       0.50000000       0.87500000 </v>
    <v>       0.25000000       0.25000000       0.37500000 </v>
    <v>       0.25000000       0.25000000       0.87500000 </v>
    <v>       0.25000000       0.75000000       0.37500000 </v>
    <v>       0.25000000       0.75000000       0.87500000 </v>
    <v>       0.75000000       0.25000000       0.37500000 </v>
    <v>       0.75000000       0.25000000       0.87500000 </v>
    <v>       0.75000000       0.75000000       0.37500000 </v>
    <v>       0.75000000       0.75000000       0.87500000 </v>
    <v>       0.25000000       0.25000000       0.12500000 </v>
    <v>       0.25000000       0.25000000       0.62500000 </v>
    <v>       0.25000000       0.75000000       0.12500000 </v>
    <v>       0.25000000       0.75000000       0.62500000 </v>
    <v>       0.75000000       0.25000000       0.12500000 </v>
    <v>       0.75000000       0.25000000       0.62500000 </v>
    <v>       0.75000000       0.75000000       0.12500000 </v>
    <v>       0.75000000       0.75000000       0.62500000 </v>
   </varray>
  </structure>
  <varray name="forces" >
   <v>       0.00000000       0.00000000       0.00000000 </v>
   <v>       0.00000000       0.00000000       0.00000000 </v>
   <v>       0.00000000       0.00000000       0.00000000 </v>
   <v>       0.00000000       0.00000000       0.00000000 </v>
   <v>       0.00000000       0.00000000       0.00000000 </v>
   <v>       0.00000000       0.00000000       0.00000000 </v>
   <v>       0.00000000       0.00000000       0.00000000 </v>
   <v>       0.00000000       0.00000000       0.00000000 </v>
   <v>       0.00000000       0.00000000       0.00000000 </v>
   <v>       0.00000000       0.00000000       0.00000000 </v>
[...]
       <r>   -17.0746     0.0000    32.0000 </r>
       <r>   -16.9210     0.0000    32.0000 </r>
       <r>   -16.7675     0.0000    32.0000 </r>
       <r>   -16.6140     0.0000    32.0000 </r>
       <r>   -16.4605     0.0000    32.0000 </r>
       <r>   -16.3069     0.0000    32.0000 </r>
       <r>   -16.1534     0.0000    32.0000 </r>
       <r>   -15.9999     0.0000    32.0000 </r>
       <r>   -15.8464     0.0000    32.0000 </r>
       <r>   -15.6929     0.0000    32.0000 </r>
       <r>   -15.5393     0.0000    32.0000 </r>
       <r>   -15.3858     0.0000    32.0000 </r>
       <r>   -15.2323     0.0000    32.0000 </r>
       <r>   -15.0788     0.0004    32.0001 </r>
       <r>   -14.9252     8.4117    33.2914 </r>
       <r>   -14.7717    60.9815    42.6535 </r>
       <r>   -14.6182    38.6978    48.5944 </r>
       <r>   -14.4647    33.4903    53.7360 </r>
       <r>   -14.3112    29.7420    58.3020 </r>
       <r>   -14.1576    27.1082    62.4637 </r>
       <r>   -14.0041    83.9222    75.3476 </r>
       <r>   -13.8506    98.1362    90.4137 </r>
       <r>   -13.6971    91.1296   104.4042 </r>
       <r>   -13.5435    75.9644   116.0664 </r>
       <r>   -13.3900    25.5837   119.9941 </r>
       <r>   -13.2365     0.0386   120.0000 </r>
       <r>   -13.0830     0.0000   120.0000 </r>
       <r>   -12.9295     0.0677   120.0104 </r>
       <r>   -12.7759    34.9770   125.3801 </r>
       <r>   -12.6224   143.7064   147.4423 </r>
       <r>   -12.4689   106.8270   163.8426 </r>
       <r>   -12.3154    35.5940   169.3071 </r>
       <r>   -12.1618    94.7920   183.8598 </r>
       <r>   -12.0083    74.9982   195.3737 </r>
       <r>   -11.8548    79.1716   207.5283 </r>
       <r>   -11.7013    53.5547   215.7501 </r>
       <r>   -11.5478     1.6277   216.0000 </r>
       <r>   -11.3942     0.0000   216.0000 </r>
       <r>   -11.2407     0.0000   216.0000 </r>
       <r>   -11.0872     0.0000   216.0000 </r>
       <r>   -10.9337     0.0000   216.0000 </r>
       <r>   -10.7801     0.0000   216.0000 </r>
       <r>   -10.6266     0.0000   216.0000 </r>
       <r>   -10.4731     0.0000   216.0000 </r>
       <r>   -10.3196     0.0000   216.0000 </r>
       <r>   -10.1661     0.0000   216.0000 </r>
       <r>   -10.0125     0.0000   216.0000 </r>
       <r>    -9.8590     0.0000   216.0000 </r>
       <r>    -9.7055     0.0000   216.0000 </r>
       <r>    -9.5520     0.0000   216.0000 </r>
       <r>    -9.3984     0.0000   216.0000 </r>
       <r>    -9.2449     0.0000   216.0000 </r>
       <r>    -9.0914     0.0000   216.0000 </r>
       <r>    -8.9379     0.0000   216.0000 </r>
       <r>    -8.7844     0.0000   216.0000 </r>
       <r>    -8.6308     0.0000   216.0000 </r>
       <r>    -8.4773     0.0000   216.0000 </r>
       <r>    -8.3238     0.0000   216.0000 </r>
       <r>    -8.1703     0.0000   216.0000 </r>
       <r>    -8.0167     0.0000   216.0000 </r>
       <r>    -7.8632     0.0000   216.0000 </r>
       <r>    -7.7097     0.0000   216.0000 </r>
       <r>    -7.5562     0.0000   216.0000 </r>
       <r>    -7.4027     0.0000   216.0000 </r>
       <r>    -7.2491     0.0000   216.0000 </r>
       <r>    -7.0956     0.0000   216.0000 </r>
       <r>    -6.9421     0.0000   216.0000 </r>
       <r>    -6.7886     0.0000   216.0000 </r>
       <r>    -6.6350     0.0000   216.0000 </r>
       <r>    -6.4815     0.0000   216.0000 </r>
       <r>    -6.3280     0.0000   216.0000 </r>
       <r>    -6.1745     0.0000   216.0000 </r>
       <r>    -6.0209     0.0000   216.0000 </r>
       <r>    -5.8674     0.0000   216.0000 </r>
       <r>    -5.7139     0.0000   216.0000 </r>
       <r>    -5.5604     0.0000   216.0000 </r>
       <r>    -5.4069     0.0000   216.0000 </r>
       <r>    -5.2533     0.0000   216.0000 </r>
       <r>    -5.0998     0.0000   216.0000 </r>
       <r>    -4.9463     0.0000   216.0000 </r>
       <r>    -4.7928     0.0000   216.0000 </r>
       <r>    -4.6392     0.0000   216.0000 </r>
       <r>    -4.4857     0.0000   216.0000 </r>
       <r>    -4.3322     0.0000   216.0000 </r>
       <r>    -4.1787     0.0000   216.0000 </r>
       <r>    -4.0252     0.0000   216.0000 </r>
       <r>    -3.8716     0.0000   216.0000 </r>
       <r>    -3.7181     0.0000   216.0000 </r>
       <r>    -3.5646     0.0000   216.0000 </r>
       <r>    -3.4111     0.0000   216.0000 </r>
       <r>    -3.2575     0.0000   216.0000 </r>
       <r>    -3.1040     0.0000   216.0000 </r>
       <r>    -2.9505     0.0000   216.0000 </r>
       <r>    -2.7970     0.0000   216.0000 </r>
       <r>    -2.6435     0.0000   216.0000 </r>
       <r>    -2.4899     0.0000   216.0000 </r>
       <r>    -2.3364     4.5810   216.7033 </r>
       <r>    -2.1829    13.1548   218.7228 </r>
       <r>    -2.0294    37.1993   224.4338 </r>
       <r>    -1.8758    20.8658   227.6371 </r>
       <r>    -1.7223    29.6269   232.1855 </r>
       <r>    -1.5688    27.1462   236.3531 </r>
       <r>    -1.4153    33.2091   241.4514 </r>
       <r>    -1.2618    58.0439   250.3624 </r>
       <r>    -1.1082    83.2627   263.1451 </r>
       <r>    -0.9547    81.6989   275.6877 </r>
       <r>    -0.8012    52.8108   283.7954 </r>
       <r>    -0.6477    81.7190   296.3410 </r>
       <r>    -0.4941    91.0149   310.3139 </r>
       <r>    -0.3406    96.8492   325.1824 </r>
       <r>    -0.1871    86.2467   338.4232 </r>
       <r>    -0.0336    53.1886   346.5888 </r>
       <r>     0.1199    56.1064   355.2024 </r>
       <r>     0.2735    34.8557   360.5535 </r>
       <r>     0.4270    42.6636   367.1033 </r>
       <r>     0.5805    55.2756   375.5894 </r>
       <r>     0.7340    60.4821   384.8747 </r>
       <r>     0.8876    71.1061   395.7911 </r>
       <r>     1.0411    40.7459   402.0465 </r>
       <r>     1.1946    49.2464   409.6069 </r>
       <r>     1.3481    57.5455   418.4415 </r>
       <r>     1.5016    53.5123   426.6568 </r>
       <r>     1.6552    94.8617   441.2202 </r>
       <r>     1.8087    85.0952   454.2842 </r>
       <r>     1.9622    60.2401   463.5324 </r>
       <r>     2.1157    49.3573   471.1098 </r>
       <r>     2.2693    31.4783   475.9425 </r>
       <r>     2.4228     1.2707   476.1375 </r>
       <r>     2.5763    24.9600   479.9695 </r>
       <r>     2.7298     0.1989   480.0000 </r>
       <r>     2.8833     0.0000   480.0000 </r>
       <r>     3.0369     0.0000   480.0000 </r>
       <r>     3.1904     0.0000   480.0000 </r>
       <r>     3.3439     0.0000   480.0000 </r>
       <r>     3.4974     0.0000   480.0000 </r>
       <r>     3.6510     0.0000   480.0000 </r>
       <r>     3.8045     0.0000   480.0000 </r>
       <r>     3.9580     0.2370   480.0364 </r>
       <r>     4.1115     6.7246   481.0688 </r>
       <r>     4.2650    15.6636   483.4735 </r>
       <r>     4.4186     6.7190   484.5050 </r>
       <r>     4.5721    25.4323   488.4094 </r>
       <r>     4.7256    40.4479   494.6191 </r>
       <r>     4.8791    60.4572   503.9006 </r>
       <r>     5.0327    40.2614   510.0816 </r>
       <r>     5.1862    18.9706   512.9940 </r>
       <r>     5.3397    40.6555   519.2355 </r>
       <r>     5.4932   110.9817   536.2737 </r>
       <r>     5.6467    87.7657   549.7477 </r>
       <r>     5.8003    51.4374   557.6445 </r>
       <r>     5.9538    65.4725   567.6960 </r>
       <r>     6.1073    96.6956   582.5409 </r>
       <r>     6.2608    83.7162   595.3932 </r>
       <r>     6.4144    76.6109   607.1547 </r>
       <r>     6.5679    12.0194   609.0000 </r>
       <r>     6.7214     5.5399   609.8505 </r>
       <r>     6.8749    26.6923   613.9483 </r>
       <r>     7.0284     2.4153   614.3191 </r>
       <r>     7.1820    10.9498   616.0002 </r>
       <r>     7.3355    25.5939   619.9294 </r>
       <r>     7.4890    13.9097   622.0649 </r>
       <r>     7.6425    17.9253   624.8168 </r>
       <r>     7.7961    12.6027   626.7516 </r>
       <r>     7.9496    23.4798   630.3563 </r>
       <r>     8.1031    30.0428   634.9685 </r>
       <r>     8.2566    15.2960   637.3168 </r>
       <r>     8.4101    17.1487   639.9495 </r>
       <r>     8.5637    31.7952   644.8308 </r>
       <r>     8.7172    38.6062   650.7577 </r>
       <r>     8.8707    40.3315   656.9495 </r>
       <r>     9.0242    23.8778   660.6152 </r>
       <r>     9.1778    27.1239   664.7794 </r>
       <r>     9.3313    35.6269   670.2489 </r>
       <r>     9.4848    45.5842   677.2471 </r>
       <r>     9.6383    47.6714   684.5657 </r>
       <r>     9.7918    51.9107   692.5352 </r>
       <r>     9.9454    69.5285   703.2094 </r>
       <r>    10.0989    84.7349   716.2181 </r>
       <r>    10.2524    53.7086   724.4635 </r>
       <r>    10.4059    66.5972   734.6877 </r>
       <r>    10.5595    58.0708   743.6029 </r>
       <r>    10.7130    25.0318   747.4458 </r>
       <r>    10.8665    31.2875   752.2491 </r>
       <r>    11.0200    71.5331   763.2311 </r>
       <r>    11.1736    31.0416   767.9966 </r>
       <r>    11.3271     0.0219   768.0000 </r>
       <r>    11.4806     0.0000   768.0000 </r>
       <r>    11.6341     0.0000   768.0000 </r>
       <r>    11.7876     0.0000   768.0000 </r>
       <r>    11.9412     0.0000   768.0000 </r>
       <r>    12.0947     0.0000   768.0000 </r>
       <r>    12.2482     0.0000   768.0000 </r>
       <r>    12.4017     0.0000   768.0000 </r>
       <r>    12.5553     0.0000   768.0000 </r>
       <r>    12.7088     0.0000   768.0000 </r>
       <r>    12.8623     0.0000   768.0000 </r>
       <r>    13.0158     0.0000   768.0000 </r>
       <r>    13.1693     0.0000   768.0000 </r>
      </set>
     </set>
    </array>
   </total>
  </dos>
 </calculation>
 <structure name="finalpos" >
  <crystal>
   <varray name="basis" >
    <v>      11.18080294       0.00000000       0.00000000 </v>
    <v>       0.00000000      11.18080294       0.00000000 </v>
    <v>       0.00000000      -0.00000000      15.92327508 </v>
   </varray>
   <i name="volume">   1990.57426097 </i>
   <varray name="rec_basis" >
    <v>       0.08943901       0.00000000       0.00000000 </v>
    <v>       0.00000000       0.08943901       0.00000000 </v>
    <v>       0.00000000      -0.00000000       0.06280115 </v>
   </varray>
  </crystal>
  <varray name="positions" >
   <v>       0.00000000       0.25000000       0.12500000 </v>
   <v>       0.00000000       0.25000000       0.62500000 </v>
   <v>       0.00000000       0.75000000       0.12500000 </v>
   <v>       0.00000000       0.75000000       0.62500000 </v>
   <v>       0.50000000       0.25000000       0.12500000 </v>
   <v>       0.50000000       0.25000000       0.62500000 </v>
   <v>       0.50000000       0.75000000       0.12500000 </v>
   <v>       0.50000000       0.75000000       0.62500000 </v>
   <v>       0.00000000       0.25000000       0.37500000 </v>
   <v>       0.00000000       0.25000000       0.87500000 </v>
   <v>       0.00000000       0.75000000       0.37500000 </v>
   <v>       0.00000000       0.75000000       0.87500000 </v>
   <v>       0.50000000       0.25000000       0.37500000 </v>
   <v>       0.50000000       0.25000000       0.87500000 </v>
   <v>       0.50000000       0.75000000       0.37500000 </v>
   <v>       0.50000000       0.75000000       0.87500000 </v>
   <v>       0.25000000       0.00000000       0.12500000 </v>
   <v>       0.25000000       0.00000000       0.62500000 </v>
   <v>       0.25000000       0.50000000       0.12500000 </v>
   <v>       0.25000000       0.50000000       0.62500000 </v>
   <v>       0.75000000       0.00000000       0.12500000 </v>
   <v>       0.75000000       0.00000000       0.62500000 </v>
   <v>       0.75000000       0.50000000       0.12500000 </v>
   <v>       0.75000000       0.50000000       0.62500000 </v>
   <v>       0.25000000       0.00000000       0.37500000 </v>
   <v>       0.25000000       0.00000000       0.87500000 </v>
   <v>       0.25000000       0.50000000       0.37500000 </v>
   <v>       0.25000000       0.50000000       0.87500000 </v>
   <v>       0.75000000       0.00000000       0.37500000 </v>
   <v>       0.75000000       0.00000000       0.87500000 </v>
   <v>       0.75000000       0.50000000       0.37500000 </v>
   <v>       0.75000000       0.50000000       0.87500000 </v>
   <v>       0.25000000       0.25000000       0.00340264 </v>
   <v>       0.25000000       0.25000000       0.50340264 </v>
   <v>       0.25000000       0.75000000       0.00340264 </v>
   <v>       0.25000000       0.75000000       0.50340264 </v>
   <v>       0.75000000       0.25000000       0.00340264 </v>
   <v>       0.75000000       0.25000000       0.50340264 </v>
   <v>       0.75000000       0.75000000       0.00340264 </v>
   <v>       0.75000000       0.75000000       0.50340264 </v>
   <v>       0.25000000       0.25000000       0.24659736 </v>
   <v>       0.25000000       0.25000000       0.74659736 </v>
   <v>       0.25000000       0.75000000       0.24659736 </v>
   <v>       0.25000000       0.75000000       0.74659736 </v>
   <v>       0.75000000       0.25000000       0.24659736 </v>
   <v>       0.75000000       0.25000000       0.74659736 </v>
   <v>       0.75000000       0.75000000       0.24659736 </v>
   <v>       0.75000000       0.75000000       0.74659736 </v>
   <v>       0.00000000       0.00000000       0.25801812 </v>
   <v>       0.00000000       0.00000000      -0.00801812 </v>
   <v>       0.50000000       0.00000000       0.25801812 </v>
   <v>       0.50000000       0.00000000      -0.00801812 </v>
   <v>       0.00000000       0.50000000       0.25801812 </v>
   <v>       0.00000000       0.50000000      -0.00801812 </v>
   <v>       0.50000000       0.50000000       0.25801812 </v>
   <v>       0.00000000       0.00000000       0.75801812 </v>
   <v>       0.00000000       0.00000000       0.49198188 </v>
   <v>       0.50000000       0.00000000       0.75801812 </v>
   <v>       0.50000000       0.00000000       0.49198188 </v>
   <v>       0.00000000       0.50000000       0.75801812 </v>
   <v>       0.00000000       0.50000000       0.49198188 </v>
   <v>       0.50000000       0.50000000       0.75801812 </v>
   <v>       0.50000000       0.50000000       0.49198188 </v>
   <v>       0.50000000       0.50000000      -0.00801812 </v>
   <v>       0.11476451       0.13179747       0.24173790 </v>
   <v>       0.11476451       0.13179747       0.74173790 </v>
   <v>       0.11476451       0.63179747       0.24173790 </v>
   <v>       0.11476451       0.63179747       0.74173790 </v>
   <v>       0.61476451       0.13179747       0.24173790 </v>
   <v>       0.61476451       0.13179747       0.74173790 </v>
   <v>       0.61476451       0.63179747       0.24173790 </v>
   <v>       0.61476451       0.63179747       0.74173790 </v>
   <v>       0.38523549       0.36820253       0.24173790 </v>
   <v>       0.38523549       0.36820253       0.74173790 </v>
   <v>       0.38523549       0.86820253       0.24173790 </v>
   <v>       0.38523549       0.86820253       0.74173790 </v>
   <v>       0.88523549       0.36820253       0.24173790 </v>
   <v>       0.88523549       0.36820253       0.74173790 </v>
   <v>       0.88523549       0.86820253       0.24173790 </v>
   <v>       0.88523549       0.86820253       0.74173790 </v>
   <v>       0.36820253       0.11476451       0.24173790 </v>
   <v>       0.36820253       0.11476451       0.74173790 </v>
   <v>       0.36820253       0.61476451       0.24173790 </v>
   <v>       0.36820253       0.61476451       0.74173790 </v>
   <v>       0.86820253       0.11476451       0.24173790 </v>
   <v>       0.86820253       0.11476451       0.74173790 </v>
   <v>       0.86820253       0.61476451       0.24173790 </v>
   <v>       0.86820253       0.61476451       0.74173790 </v>
   <v>       0.13179747       0.38523549       0.24173790 </v>
   <v>       0.13179747       0.38523549       0.74173790 </v>
   <v>       0.13179747       0.88523549       0.24173790 </v>
   <v>       0.13179747       0.88523549       0.74173790 </v>
   <v>       0.63179747       0.38523549       0.24173790 </v>
   <v>       0.63179747       0.38523549       0.74173790 </v>
   <v>       0.63179747       0.88523549       0.24173790 </v>
   <v>       0.63179747       0.88523549       0.74173790 </v>
   <v>       0.36820253       0.38523549       0.00826210 </v>
   <v>       0.36820253       0.38523549       0.50826210 </v>
   <v>       0.36820253       0.88523549       0.00826210 </v>
   <v>       0.36820253       0.88523549       0.50826210 </v>
   <v>       0.86820253       0.38523549       0.00826210 </v>
   <v>       0.86820253       0.38523549       0.50826210 </v>
   <v>       0.86820253       0.88523549       0.00826210 </v>
   <v>       0.86820253       0.88523549       0.50826210 </v>
   <v>       0.13179747       0.11476451       0.00826210 </v>
   <v>       0.13179747       0.11476451       0.50826210 </v>
   <v>       0.13179747       0.61476451       0.00826210 </v>
   <v>       0.13179747       0.61476451       0.50826210 </v>
   <v>       0.63179747       0.11476451       0.00826210 </v>
   <v>       0.63179747       0.11476451       0.50826210 </v>
   <v>       0.63179747       0.61476451       0.00826210 </v>
   <v>       0.63179747       0.61476451       0.50826210 </v>
   <v>       0.11476451       0.36820253       0.00826210 </v>
   <v>       0.11476451       0.36820253       0.50826210 </v>
   <v>       0.11476451       0.86820253       0.00826210 </v>
   <v>       0.11476451       0.86820253       0.50826210 </v>
   <v>       0.61476451       0.36820253       0.00826210 </v>
   <v>       0.61476451       0.36820253       0.50826210 </v>
   <v>       0.61476451       0.86820253       0.00826210 </v>
   <v>       0.61476451       0.86820253       0.50826210 </v>
   <v>       0.38523549       0.13179747       0.00826210 </v>
   <v>       0.38523549       0.13179747       0.50826210 </v>
   <v>       0.38523549       0.63179747       0.00826210 </v>
   <v>       0.38523549       0.63179747       0.50826210 </v>
   <v>       0.88523549       0.13179747       0.00826210 </v>
   <v>       0.88523549       0.13179747       0.50826210 </v>
   <v>       0.88523549       0.63179747       0.00826210 </v>
   <v>       0.88523549       0.63179747       0.50826210 </v>
   <v>       0.00000000       0.00000000       0.37500000 </v>
   <v>       0.00000000       0.00000000       0.87500000 </v>
   <v>       0.00000000       0.50000000       0.37500000 </v>
   <v>       0.00000000       0.50000000       0.87500000 </v>
   <v>       0.50000000       0.00000000       0.37500000 </v>
   <v>       0.50000000       0.00000000       0.87500000 </v>
   <v>       0.50000000       0.50000000       0.37500000 </v>
   <v>       0.50000000       0.50000000       0.87500000 </v>
   <v>       0.25000000       0.25000000       0.37500000 </v>
   <v>       0.25000000       0.25000000       0.87500000 </v>
   <v>       0.25000000       0.75000000       0.37500000 </v>
   <v>       0.25000000       0.75000000       0.87500000 </v>
   <v>       0.75000000       0.25000000       0.37500000 </v>
   <v>       0.75000000       0.25000000       0.87500000 </v>
   <v>       0.75000000       0.75000000       0.37500000 </v>
   <v>       0.75000000       0.75000000       0.87500000 </v>
   <v>       0.25000000       0.25000000       0.12500000 </v>
   <v>       0.25000000       0.25000000       0.62500000 </v>
   <v>       0.25000000       0.75000000       0.12500000 </v>
   <v>       0.25000000       0.75000000       0.62500000 </v>
   <v>       0.75000000       0.25000000       0.12500000 </v>
   <v>       0.75000000       0.25000000       0.62500000 </v>
   <v>       0.75000000       0.75000000       0.12500000 </v>
   <v>       0.75000000       0.75000000       0.62500000 </v>
  </varray>
 </structure>
</modeling>
