       N       E                     dE             d eps       ncg     rms          rms(c)
DAV:   1    -0.108673982396E+04   -0.10867E+04   -0.16540E-02 13592   0.300E-01    0.264E-02
RMM:   2    -0.108673982501E+04   -0.10477E-05   -0.27321E-05  6812   0.910E-03    0.404E-02
RMM:   3    -0.108673982546E+04   -0.45086E-06   -0.94012E-06  6371   0.585E-03    0.622E-03
RMM:   4    -0.108673982597E+04   -0.51282E-06   -0.55081E-06  5076   0.336E-03    0.468E-03
RMM:   5    -0.108673982627E+04   -0.29452E-06   -0.35320E-06  4819   0.359E-03    0.204E-03
RMM:   6    -0.108673982652E+04   -0.24821E-06   -0.22877E-06  3380   0.240E-03    0.169E-03
RMM:   7    -0.108673982667E+04   -0.14927E-06   -0.15623E-06  3188   0.266E-03    0.102E-03
RMM:   8    -0.108673982676E+04   -0.94311E-07   -0.83814E-07  2438   0.204E-03
   1 F= -.10867398E+04 E0= -.10867398E+04  d E =-.108674E+04  mag=    50.0000
       N       E                     dE             d eps       ncg     rms          rms(c)
DAV:   1    -0.108673955197E+04    0.27470E-03   -0.74812E-01 12720   0.102E+00    0.379E-01
RMM:   2    -0.108674193580E+04   -0.23838E-02   -0.22998E-02 12302   0.208E-01    0.292E-01
RMM:   3    -0.108674203006E+04   -0.94259E-04   -0.13975E-03 12484   0.752E-02    0.181E-01
RMM:   4    -0.108674191450E+04    0.11556E-03   -0.42593E-04 10478   0.268E-02    0.998E-02
RMM:   5    -0.108674189027E+04    0.24230E-04   -0.12448E-04  7642   0.188E-02    0.516E-02
RMM:   6    -0.108674189355E+04   -0.32835E-05   -0.31888E-05  7191   0.113E-02    0.210E-02
RMM:   7    -0.108674189419E+04   -0.64100E-06   -0.14529E-05  7066   0.616E-03    0.126E-02
RMM:   8    -0.108674189444E+04   -0.24032E-06   -0.76351E-06  6854   0.534E-03
   2 F= -.10867419E+04 E0= -.10867419E+04  d E =-.206767E-02  mag=    50.0000
       N       E                     dE             d eps       ncg     rms          rms(c)
DAV:   1    -0.108674189300E+04    0.11918E-05   -0.23068E-03 12936   0.570E-02    0.223E-02
RMM:   2    -0.108674189952E+04   -0.65159E-05   -0.61831E-05  6711   0.124E-02    0.187E-02
RMM:   3    -0.108674190069E+04   -0.11664E-05   -0.76020E-06  6266   0.593E-03    0.103E-02
RMM:   4    -0.108674190056E+04    0.12964E-06   -0.25889E-06  5552   0.302E-03    0.106E-02
RMM:   5    -0.108674190043E+04    0.12173E-06   -0.48793E-07  3465   0.224E-03    0.362E-03
RMM:   6    -0.108674190041E+04    0.26412E-07   -0.39482E-07  2277   0.201E-03    0.135E-03
RMM:   7    -0.108674190041E+04   -0.25757E-08   -0.25424E-08  1458   0.173E-03    0.692E-04
RMM:   8    -0.108674190041E+04   -0.13533E-08   -0.14990E-09  1281   0.172E-03
   3 F= -.10867419E+04 E0= -.10867419E+04  d E =-.207365E-02  mag=    50.0000
       N       E                     dE             d eps       ncg     rms          rms(c)
DAV:   1    -0.108674173270E+04    0.16771E-03   -0.63011E-01 12736   0.950E-01    0.291E-01
RMM:   2    -0.108674344205E+04   -0.17094E-02   -0.17025E-02 12334   0.177E-01    0.201E-01
RMM:   3    -0.108674350985E+04   -0.67806E-04   -0.99504E-04 11895   0.685E-02    0.123E-01
RMM:   4    -0.108674345173E+04    0.58127E-04   -0.27227E-04  8398   0.222E-02    0.754E-02
RMM:   5    -0.108674344095E+04    0.10778E-04   -0.76496E-05  7275   0.152E-02    0.600E-02
RMM:   6    -0.108674344381E+04   -0.28656E-05   -0.32296E-05  7107   0.104E-02    0.120E-02
RMM:   7    -0.108674344549E+04   -0.16795E-05   -0.14735E-05  7045   0.671E-03    0.815E-03
RMM:   8    -0.108674344663E+04   -0.11363E-05   -0.91652E-06  6741   0.522E-03
   4 F= -.10867434E+04 E0= -.10867434E+04  d E =-.154622E-02  mag=    50.0000
       N       E                     dE             d eps       ncg     rms          rms(c)
DAV:   1    -0.108674332125E+04    0.12424E-03   -0.86059E-02 12576   0.351E-01    0.108E-01
RMM:   2    -0.108674356045E+04   -0.23919E-03   -0.23791E-03 12238   0.664E-02    0.747E-02
RMM:   3    -0.108674356713E+04   -0.66813E-05   -0.11322E-04  7145   0.259E-02    0.460E-02
RMM:   4    -0.108674356225E+04    0.48802E-05   -0.49803E-05  7089   0.104E-02    0.357E-02
RMM:   5    -0.108674356147E+04    0.77912E-06   -0.18342E-05  6946   0.825E-03    0.249E-02
RMM:   6    -0.108674356234E+04   -0.86552E-06   -0.11549E-05  6737   0.452E-03    0.787E-03
RMM:   7    -0.108674356277E+04   -0.43224E-06   -0.44557E-06  6234   0.440E-03    0.467E-03
RMM:   8    -0.108674356302E+04   -0.24853E-06   -0.21686E-06  4000   0.236E-03
   5 F= -.10867436E+04 E0= -.10867436E+04  d E =-.166261E-02  mag=    50.0000
       N       E                     dE             d eps       ncg     rms          rms(c)
DAV:   1    -0.108674305300E+04    0.50977E-03   -0.64907E-01 12784   0.959E-01    0.280E-01
RMM:   2    -0.108674485615E+04   -0.18031E-02   -0.17185E-02 12388   0.174E-01    0.187E-01
RMM:   3    -0.108674493443E+04   -0.78279E-04   -0.99957E-04 11844   0.670E-02    0.113E-01
RMM:   4    -0.108674488774E+04    0.46685E-04   -0.22981E-04  7892   0.208E-02    0.767E-02
RMM:   5    -0.108674487909E+04    0.86552E-05   -0.70885E-05  7194   0.145E-02    0.501E-02
RMM:   6    -0.108674488335E+04   -0.42679E-05   -0.32199E-05  7106   0.103E-02    0.113E-02
RMM:   7    -0.108674488553E+04   -0.21710E-05   -0.15984E-05  7053   0.701E-03    0.773E-03
RMM:   8    -0.108674488704E+04   -0.15146E-05   -0.10018E-05  6870   0.548E-03
   6 F= -.10867449E+04 E0= -.10867449E+04  d E =-.132402E-02  mag=    50.0000
       N       E                     dE             d eps       ncg     rms          rms(c)
DAV:   1    -0.108674432686E+04    0.55867E-03   -0.27759E-01 12832   0.627E-01    0.183E-01
RMM:   2    -0.108674510656E+04   -0.77970E-03   -0.74239E-03 12410   0.114E-01    0.123E-01
RMM:   3    -0.108674513438E+04   -0.27823E-04   -0.39094E-04  9636   0.440E-02    0.757E-02
RMM:   4    -0.108674511861E+04    0.15774E-04   -0.11066E-04  7239   0.152E-02    0.674E-02
RMM:   5    -0.108674511577E+04    0.28376E-05   -0.39746E-05  7100   0.115E-02    0.338E-02
RMM:   6    -0.108674511822E+04   -0.24451E-05   -0.26707E-05  7051   0.744E-03    0.119E-02
RMM:   7    -0.108674511949E+04   -0.12744E-05   -0.10343E-05  6935   0.645E-03    0.883E-03
RMM:   8    -0.108674512037E+04   -0.87723E-06   -0.74683E-06  6104   0.364E-03
   7 F= -.10867451E+04 E0= -.10867451E+04  d E =-.155735E-02  mag=    50.0000
       N       E                     dE             d eps       ncg     rms          rms(c)
DAV:   1    -0.108674431292E+04    0.80657E-03   -0.67136E-01 12656   0.962E-01    0.264E-01
RMM:   2    -0.108674610335E+04   -0.17904E-02   -0.17596E-02 12378   0.174E-01    0.173E-01
RMM:   3    -0.108674616304E+04   -0.59687E-04   -0.98436E-04 11648   0.660E-02    0.101E-01
RMM:   4    -0.108674611614E+04    0.46899E-04   -0.23670E-04  7932   0.205E-02    0.629E-02
RMM:   5    -0.108674610649E+04    0.96482E-05   -0.70563E-05  7167   0.146E-02    0.542E-02
RMM:   6    -0.108674610862E+04   -0.21278E-05   -0.30261E-05  7075   0.102E-02    0.117E-02
RMM:   7    -0.108674610934E+04   -0.71690E-06   -0.15067E-05  6967   0.672E-03    0.794E-03
RMM:   8    -0.108674610941E+04   -0.74026E-07   -0.94783E-06  6855   0.553E-03
   8 F= -.10867461E+04 E0= -.10867461E+04  d E =-.989039E-03  mag=    50.0000
       N       E                     dE             d eps       ncg     rms          rms(c)
DAV:   1    -0.108674578682E+04    0.32251E-03   -0.16697E-01 12608   0.480E-01    0.132E-01
RMM:   2    -0.108674623716E+04   -0.45033E-03   -0.44355E-03 12377   0.872E-02    0.864E-02
RMM:   3    -0.108674624720E+04   -0.10038E-04   -0.20901E-04  7951   0.327E-02    0.509E-02
RMM:   4    -0.108674623796E+04    0.92393E-05   -0.68094E-05  7087   0.125E-02    0.358E-02
RMM:   5    -0.108674623652E+04    0.14390E-05   -0.27099E-05  6966   0.982E-03    0.327E-02
RMM:   6    -0.108674623698E+04   -0.46166E-06   -0.15775E-05  6830   0.568E-03    0.107E-02
RMM:   7    -0.108674623725E+04   -0.27251E-06   -0.70141E-06  6683   0.516E-03    0.706E-03
RMM:   8    -0.108674623738E+04   -0.12841E-06   -0.44503E-06  4928   0.302E-03
   9 F= -.10867462E+04 E0= -.10867462E+04  d E =-.111701E-02  mag=    50.0000
       N       E                     dE             d eps       ncg     rms          rms(c)
DAV:   1    -0.108674540863E+04    0.82862E-03   -0.67512E-01 12368   0.956E-01    0.238E-01
RMM:   2    -0.108674713866E+04   -0.17300E-02   -0.17042E-02 12471   0.171E-01    0.152E-01
RMM:   3    -0.108674719749E+04   -0.58829E-04   -0.96507E-04 11456   0.654E-02    0.913E-02
RMM:   4    -0.108674715850E+04    0.38988E-04   -0.18331E-04  7656   0.187E-02    0.576E-02
RMM:   5    -0.108674714596E+04    0.12549E-04   -0.78177E-05  7144   0.138E-02    0.406E-02
RMM:   6    -0.108674714866E+04   -0.27046E-05   -0.28718E-05  7056   0.106E-02    0.114E-02
RMM:   7    -0.108674715005E+04   -0.13929E-05   -0.14809E-05  6828   0.584E-03    0.728E-03
RMM:   8    -0.108674715055E+04   -0.49327E-06   -0.82712E-06  6601   0.568E-03
  10 F= -.10867472E+04 E0= -.10867472E+04  d E =-.913166E-03  mag=    50.0000
       N       E                     dE             d eps       ncg     rms          rms(c)
DAV:   1    -0.108674648141E+04    0.66865E-03   -0.34841E-01 12416   0.687E-01    0.171E-01
RMM:   2    -0.108674738261E+04   -0.90120E-03   -0.88785E-03 12497   0.122E-01    0.109E-01
RMM:   3    -0.108674740512E+04   -0.22515E-04   -0.45607E-04  9941   0.461E-02    0.657E-02
RMM:   4    -0.108674738668E+04    0.18444E-04   -0.10018E-04  7153   0.144E-02    0.478E-02
RMM:   5    -0.108674738178E+04    0.49014E-05   -0.38881E-05  7075   0.106E-02    0.402E-02
RMM:   6    -0.108674738273E+04   -0.95383E-06   -0.24168E-05  6911   0.777E-03    0.921E-03
RMM:   7    -0.108674738361E+04   -0.87819E-06   -0.10135E-05  6728   0.589E-03    0.654E-03
RMM:   8    -0.108674738411E+04   -0.50565E-06   -0.64460E-06  5917   0.382E-03
  11 F= -.10867474E+04 E0= -.10867474E+04  d E =-.114673E-02  mag=    50.0000
       N       E                     dE             d eps       ncg     rms          rms(c)
DAV:   1    -0.108674706223E+04    0.32138E-03   -0.49672E-01 12464   0.818E-01    0.191E-01
RMM:   2    -0.108674831924E+04   -0.12570E-02   -0.12538E-02 12498   0.145E-01    0.126E-01
RMM:   3    -0.108674834766E+04   -0.28417E-04   -0.68137E-04 10885   0.568E-02    0.751E-02
RMM:   4    -0.108674832289E+04    0.24763E-04   -0.13716E-04  7291   0.166E-02    0.607E-02
RMM:   5    -0.108674831807E+04    0.48244E-05   -0.44810E-05  7084   0.113E-02    0.342E-02
RMM:   6    -0.108674832094E+04   -0.28665E-05   -0.28063E-05  6994   0.868E-03    0.986E-03
RMM:   7    -0.108674832276E+04   -0.18227E-05   -0.12163E-05  6809   0.630E-03    0.748E-03
RMM:   8    -0.108674832379E+04   -0.10309E-05   -0.76037E-06  6199   0.435E-03
  12 F= -.10867483E+04 E0= -.10867483E+04  d E =-.939675E-03  mag=    50.0000
