<?xml version="1.0" encoding="ISO-8859-1"?>
<modeling>
 <generator>
  <i name="program" type="string">vasp </i>
  <i name="version" type="string">5.4.1  </i>
  <i name="subversion" type="string">05Feb16 (build Jan 25 2017 20:16:33) complex                          parallel </i>
  <i name="platform" type="string">BWXE6 </i>
  <i name="date" type="string">2019 06 24 </i>
  <i name="time" type="string">06:20:47 </i>
 </generator>
 <incar>
  <i type="string" name="SYSTEM"> STF</i>
  <i type="string" name="PREC">normal</i>
  <i type="string" name="ALGO"> Fast</i>
  <i type="int" name="ISPIN">     2</i>
  <i type="int" name="NELM">    40</i>
  <i type="int" name="NELMIN">     8</i>
  <i type="int" name="IBRION">     2</i>
  <i name="EDIFF">      0.00010000</i>
  <i name="EDIFFG">     -0.03000000</i>
  <i type="int" name="NSW">    30</i>
  <i type="int" name="ISIF">     3</i>
  <i name="ENCUT">    520.00000000</i>
  <i type="int" name="NBANDS">   768</i>
  <v name="MAGMOM">      0.60000000      0.60000000      0.60000000      0.60000000      0.60000000      0.60000000      0.60000000      0.60000000      0.60000000      0.60000000      0.60000000      0.60000000      0.60000000      0.60000000      0.60000000      0.60000000      0.60000000      0.60000000      0.60000000      0.60000000
      0.60000000      0.60000000      0.60000000      0.60000000      0.60000000      0.60000000      0.60000000      0.60000000      0.60000000      0.60000000      0.60000000      0.60000000      0.60000000      0.60000000      0.60000000      0.60000000      0.60000000      0.60000000      0.60000000      0.60000000
      0.60000000      0.60000000      0.60000000      0.60000000      0.60000000      0.60000000      0.60000000      0.60000000      0.60000000      0.60000000      0.60000000      0.60000000      5.00000000      5.00000000      5.00000000      5.00000000      5.00000000      5.00000000      5.00000000      5.00000000
      5.00000000      5.00000000      5.00000000      5.00000000      0.60000000      0.60000000      0.60000000      0.60000000      0.60000000      0.60000000      0.60000000      0.60000000      0.60000000      0.60000000      0.60000000      0.60000000      0.60000000      0.60000000      0.60000000      0.60000000
      0.60000000      0.60000000      0.60000000      0.60000000      0.60000000      0.60000000      0.60000000      0.60000000      0.60000000      0.60000000      0.60000000      0.60000000      0.60000000      0.60000000      0.60000000      0.60000000      0.60000000      0.60000000      0.60000000      0.60000000
      0.60000000      0.60000000      0.60000000      0.60000000      0.60000000      0.60000000      0.60000000      0.60000000      0.60000000      0.60000000      0.60000000      0.60000000      0.60000000      0.60000000      0.60000000      0.60000000      0.60000000      0.60000000      0.60000000      0.60000000
      0.60000000      0.60000000      0.60000000      0.60000000      0.60000000      0.60000000      0.60000000      0.60000000      0.60000000      0.60000000      0.60000000      0.60000000      0.60000000      0.60000000      0.60000000      0.60000000      0.60000000      0.60000000      0.60000000      0.60000000
      0.60000000      0.60000000      0.60000000      0.60000000      0.60000000      0.60000000      0.60000000      0.60000000      0.60000000      0.60000000      0.60000000      0.60000000      0.60000000      0.60000000</v>
  <i type="string" name="LREAL"> Auto</i>
  <i type="int" name="ISMEAR">     0</i>
  <i name="SIGMA">      0.05000000</i>
  <i type="int" name="LMAXMIX">     4</i>
  <v type="int" name="KPOINT_BSE">    -1     0     0     0</v>
  <i type="int" name="NELM">    40</i>
  <i type="logical" name="LDAU"> T  </i>
  <v type="int" name="LDAUTYPE">     2</v>
  <v type="int" name="LDAUL">     0     2     2     0</v>
  <v name="LDAUU">      0.00000000      3.00000000      5.00000000      0.00000000</v>
  <v name="LDAUJ">      0.00000000      0.00000000      0.00000000      0.00000000</v>
  <i type="int" name="LDAUPRINT">     1</i>
 </incar>
 <kpoints>
  <generation param="Monkhorst-Pack">
   <v type="int" name="divisions">       2        2        2 </v>
   <v name="usershift">      0.00000000       0.00000000       0.00000000 </v>
   <v name="genvec1">      0.50000000      -0.00000000      -0.00000000 </v>
   <v name="genvec2">      0.00000000       0.50000000       0.00000000 </v>
   <v name="genvec3">      0.00000000       0.00000000       0.50000000 </v>
   <v name="shift">      0.50000000       0.50000000       0.50000000 </v>
  </generation>
  <varray name="kpointlist" >
   <v>       0.25000000       0.25000000       0.25000000 </v>
   <v>      -0.25000000       0.25000000       0.25000000 </v>
   <v>       0.25000000      -0.25000000       0.25000000 </v>
   <v>      -0.25000000      -0.25000000       0.25000000 </v>
  </varray>
  <varray name="weights" >
   <v>       0.25000000 </v>
   <v>       0.25000000 </v>
   <v>       0.25000000 </v>
   <v>       0.25000000 </v>
  </varray>
 </kpoints>
 <parameters>
  <separator name="general" >
   <i type="string" name="SYSTEM">STF</i>
   <i type="logical" name="LCOMPAT"> F  </i>
  </separator>
  <separator name="electronic" >
   <i type="string" name="PREC">normal</i>
   <i name="ENMAX">    520.00000000</i>
   <i name="ENAUG">    605.39200000</i>
   <i name="EDIFF">      0.00010000</i>
   <i type="int" name="IALGO">    68</i>
   <i type="int" name="IWAVPR">    11</i>
   <i type="int" name="NBANDS">   768</i>
   <i name="NELECT">   1036.00000000</i>
   <i type="int" name="TURBO">     0</i>
   <i type="int" name="IRESTART">     0</i>
   <i type="int" name="NREBOOT">     0</i>
   <i type="int" name="NMIN">     0</i>
   <i name="EREF">      0.00000000</i>
   <separator name="electronic smearing" >
    <i type="int" name="ISMEAR">     0</i>
    <i name="SIGMA">      0.05000000</i>
    <i name="KSPACING">      0.50000000</i>
    <i type="logical" name="KGAMMA"> T  </i>
   </separator>
   <separator name="electronic projectors" >
    <i type="logical" name="LREAL"> T  </i>
    <v name="ROPT">     -0.00050000     -0.00050000     -0.00050000     -0.00050000</v>
    <i type="int" name="LMAXPAW">  -100</i>
    <i type="int" name="LMAXMIX">     4</i>
    <i type="logical" name="NLSPLINE"> F  </i>
   </separator>
   <separator name="electronic startup" >
    <i type="int" name="ISTART">     1</i>
    <i type="int" name="ICHARG">     0</i>
    <i type="int" name="INIWAV">     1</i>
   </separator>
   <separator name="electronic spin" >
    <i type="int" name="ISPIN">     2</i>
    <i type="logical" name="LNONCOLLINEAR"> F  </i>
    <v name="MAGMOM">      0.60000000      0.60000000      0.60000000      0.60000000      0.60000000      0.60000000      0.60000000      0.60000000      0.60000000      0.60000000      0.60000000      0.60000000      0.60000000      0.60000000      0.60000000      0.60000000      0.60000000      0.60000000      0.60000000      0.60000000
      0.60000000      0.60000000      0.60000000      0.60000000      0.60000000      0.60000000      0.60000000      0.60000000      0.60000000      0.60000000      0.60000000      0.60000000      0.60000000      0.60000000      0.60000000      0.60000000      0.60000000      0.60000000      0.60000000      0.60000000
      0.60000000      0.60000000      0.60000000      0.60000000      0.60000000      0.60000000      0.60000000      0.60000000      0.60000000      0.60000000      0.60000000      0.60000000      5.00000000      5.00000000      5.00000000      5.00000000      5.00000000      5.00000000      5.00000000      5.00000000
      5.00000000      5.00000000      5.00000000      5.00000000      0.60000000      0.60000000      0.60000000      0.60000000      0.60000000      0.60000000      0.60000000      0.60000000      0.60000000      0.60000000      0.60000000      0.60000000      0.60000000      0.60000000      0.60000000      0.60000000
      0.60000000      0.60000000      0.60000000      0.60000000      0.60000000      0.60000000      0.60000000      0.60000000      0.60000000      0.60000000      0.60000000      0.60000000      0.60000000      0.60000000      0.60000000      0.60000000      0.60000000      0.60000000      0.60000000      0.60000000
      0.60000000      0.60000000      0.60000000      0.60000000      0.60000000      0.60000000      0.60000000      0.60000000      0.60000000      0.60000000      0.60000000      0.60000000      0.60000000      0.60000000      0.60000000      0.60000000      0.60000000      0.60000000      0.60000000      0.60000000
      0.60000000      0.60000000      0.60000000      0.60000000      0.60000000      0.60000000      0.60000000      0.60000000      0.60000000      0.60000000      0.60000000      0.60000000      0.60000000      0.60000000      0.60000000      0.60000000      0.60000000      0.60000000      0.60000000      0.60000000
      0.60000000      0.60000000      0.60000000      0.60000000      0.60000000      0.60000000      0.60000000      0.60000000      0.60000000      0.60000000      0.60000000      0.60000000      0.60000000      0.60000000</v>
    <i name="NUPDOWN">     -1.00000000</i>
    <i type="logical" name="LSORBIT"> F  </i>
    <v name="SAXIS">      0.00000000      0.00000000      1.00000000</v>
    <i type="logical" name="LSPIRAL"> F  </i>
    <v name="QSPIRAL">      0.00000000      0.00000000      0.00000000</v>
    <i type="logical" name="LZEROZ"> F  </i>
   </separator>
   <separator name="electronic exchange-correlation" >
    <i type="logical" name="LASPH"> F  </i>
    <i type="logical" name="LMETAGGA"> F  </i>
   </separator>
   <separator name="electronic convergence" >
    <i type="int" name="NELM">    40</i>
    <i type="int" name="NELMDL">     0</i>
    <i type="int" name="NELMIN">     8</i>
    <i name="ENINI">    520.00000000</i>
    <separator name="electronic convergence detail" >
     <i type="logical" name="LDIAG"> T  </i>
     <i type="logical" name="LSUBROT"> F  </i>
     <i name="WEIMIN">      0.00100000</i>
     <i name="EBREAK">      0.00000003</i>
     <i name="DEPER">      0.30000000</i>
     <i type="int" name="NRMM">     4</i>
     <i name="TIME">      0.40000000</i>
    </separator>
   </separator>
   <separator name="electronic mixer" >
    <i name="AMIX">      0.40000000</i>
    <i name="BMIX">      1.00000000</i>
    <i name="AMIN">      0.10000000</i>
    <i name="AMIX_MAG">      1.60000000</i>
    <i name="BMIX_MAG">      1.00000000</i>
    <separator name="electronic mixer details" >
     <i type="int" name="IMIX">     4</i>
     <i type="logical" name="MIXFIRST"> F  </i>
     <i type="int" name="MAXMIX">   -45</i>
     <i name="WC">    100.00000000</i>
     <i type="int" name="INIMIX">     1</i>
     <i type="int" name="MIXPRE">     1</i>
     <i type="int" name="MREMOVE">     5</i>
    </separator>
   </separator>
   <separator name="electronic dipolcorrection" >
    <i type="logical" name="LDIPOL"> F  </i>
    <i type="logical" name="LMONO"> F  </i>
    <i type="int" name="IDIPOL">     0</i>
    <i name="EPSILON">      1.00000000</i>
    <v name="DIPOL">   -100.00000000   -100.00000000   -100.00000000</v>
    <i name="EFIELD">      0.00000000</i>
   </separator>
  </separator>
  <separator name="grids" >
   <i type="int" name="NGX">    64</i>
   <i type="int" name="NGY">    64</i>
   <i type="int" name="NGZ">    90</i>
   <i type="int" name="NGXF">   128</i>
   <i type="int" name="NGYF">   128</i>
   <i type="int" name="NGZF">   180</i>
   <i type="logical" name="ADDGRID"> F  </i>
  </separator>
  <separator name="ionic" >
   <i type="int" name="NSW">    30</i>
   <i type="int" name="IBRION">     2</i>
   <i type="int" name="ISIF">     3</i>
   <i name="PSTRESS">      0.00000000</i>
   <i name="EDIFFG">     -0.03000000</i>
   <i type="int" name="NFREE">     1</i>
   <i name="POTIM">      0.50000000</i>
   <i name="SMASS">     -3.00000000</i>
   <i name="SCALEE">      1.00000000</i>
  </separator>
  <separator name="ionic md" >
   <i name="TEBEG">      0.00010000</i>
   <i name="TEEND">      0.00010000</i>
   <i type="int" name="NBLOCK">     1</i>
   <i type="int" name="KBLOCK">    30</i>
   <i type="int" name="NPACO">   256</i>
   <i name="APACO">     16.00000000</i>
  </separator>
  <separator name="symmetry" >
   <i type="int" name="ISYM">     2</i>
   <i name="SYMPREC">      0.00001000</i>
  </separator>
  <separator name="dos" >
   <i type="logical" name="LORBIT"> F  </i>
   <v name="RWIGS">     -1.00000000     -1.00000000     -1.00000000     -1.00000000</v>
   <i type="int" name="NEDOS">   301</i>
   <i name="EMIN">     10.00000000</i>
   <i name="EMAX">    -10.00000000</i>
   <i name="EFERMI">      0.00000000</i>
  </separator>
  <separator name="writing" >
   <i type="int" name="NWRITE">     2</i>
   <i type="logical" name="LWAVE"> T  </i>
   <i type="logical" name="LCHARG"> T  </i>
   <i type="logical" name="LPARD"> F  </i>
   <i type="logical" name="LVTOT"> F  </i>
   <i type="logical" name="LVHAR"> F  </i>
   <i type="logical" name="LELF"> F  </i>
   <i type="logical" name="LOPTICS"> F  </i>
   <v name="STM">      0.00000000      0.00000000      0.00000000      0.00000000      0.00000000      0.00000000      0.00000000</v>
  </separator>
  <separator name="performance" >
   <i type="int" name="NPAR">     2</i>
   <i type="int" name="NSIM">     4</i>
   <i type="int" name="NBLK">    -1</i>
   <i type="logical" name="LPLANE"> T  </i>
   <i type="logical" name="LSCALAPACK"> T  </i>
   <i type="logical" name="LSCAAWARE"> F  </i>
   <i type="logical" name="LSCALU"> F  </i>
   <i type="logical" name="LASYNC"> F  </i>
   <i type="logical" name="LORBITALREAL"> F  </i>
  </separator>
  <separator name="miscellaneous" >
   <i type="int" name="IDIOT">     3</i>
   <i type="logical" name="LMUSIC"> F  </i>
   <v name="POMASS">     87.62000000     47.88000000     55.84700000     16.00000000</v>
   <v name="DARWINR">      0.00000000      0.00000000      0.00000000      0.00000000</v>
   <v name="DARWINV">      1.00000000      1.00000000      1.00000000      1.00000000</v>
   <i type="logical" name="LCORR"> T  </i>
  </separator>
  <i type="logical" name="GGA_COMPAT"> T  </i>
  <i type="logical" name="LBERRY"> F  </i>
  <i type="int" name="ICORELEVEL">     0</i>
  <i type="logical" name="LDAU"> T  </i>
  <v type="int" name="LDAUTYPE">     2</v>
  <v type="int" name="LDAUL">     0</v>
  <v name="LDAUU">      0.00000000</v>
  <v name="LDAUJ">      0.00000000</v>
  <i type="int" name="LDAUPRINT">     1</i>
  <i type="int" name="I_CONSTRAINED_M">     0</i>
  <separator name="electronic exchange-correlation" >
   <i type="string" name="GGA">--</i>
   <i type="int" name="VOSKOWN">     0</i>
   <i type="logical" name="LHFCALC"> F  </i>
   <i type="string" name="PRECFOCK"></i>
   <i type="logical" name="LSYMGRAD"> F  </i>
   <i type="logical" name="LHFONE"> F  </i>
   <i type="logical" name="LRHFCALC"> F  </i>
   <i type="logical" name="LTHOMAS"> F  </i>
   <i type="logical" name="LMODELHF"> F  </i>
   <i name="ENCUT4O">     -1.00000000</i>
   <i type="int" name="EXXOEP">     0</i>
   <i type="int" name="FOURORBIT">     0</i>
   <i name="AEXX">      0.00000000</i>
   <i name="HFALPHA">      0.00000000</i>
   <i name="MCALPHA">      0.00000000</i>
   <i name="ALDAX">      1.00000000</i>
   <i name="AGGAX">      1.00000000</i>
   <i name="ALDAC">      1.00000000</i>
   <i name="AGGAC">      1.00000000</i>
   <i type="int" name="NKREDX">     1</i>
   <i type="int" name="NKREDY">     1</i>
   <i type="int" name="NKREDZ">     1</i>
   <i type="logical" name="SHIFTRED"> F  </i>
   <i type="logical" name="ODDONLY"> F  </i>
   <i type="logical" name="EVENONLY"> F  </i>
   <i type="int" name="LMAXFOCK">     0</i>
   <i type="int" name="NMAXFOCKAE">     0</i>
   <i type="logical" name="LFOCKAEDFT"> F  </i>
   <i name="HFSCREEN">      0.00000000</i>
   <i name="HFSCREENC">      0.00000000</i>
   <i type="int" name="NBANDSGWLOW">     0</i>
  </separator>
  <separator name="vdW DFT" >
   <i type="logical" name="LUSE_VDW"> F  </i>
   <i name="Zab_VDW">     -0.84910000</i>
   <i name="PARAM1">      0.12340000</i>
   <i name="PARAM2">      1.00000000</i>
   <i name="PARAM3">      0.00000000</i>
  </separator>
  <separator name="model GW" >
   <i type="int" name="MODEL_GW">     0</i>
   <i name="MODEL_EPS0">      7.87087345</i>
   <i name="MODEL_ALPHA">      1.00000000</i>
  </separator>
  <separator name="linear response parameters" >
   <i type="logical" name="LEPSILON"> F  </i>
   <i type="logical" name="LRPA"> F  </i>
   <i type="logical" name="LNABLA"> F  </i>
   <i type="logical" name="LVEL"> F  </i>
   <i type="int" name="KINTER">     0</i>
   <i name="CSHIFT">      0.10000000</i>
   <i name="OMEGAMAX">     -1.00000000</i>
   <i name="DEG_THRESHOLD">      0.00200000</i>
  </separator>
  <separator name="orbital magnetization" >
   <i type="logical" name="NUCIND"> F  </i>
   <v name="MAGPOS">      0.00000000      0.00000000      0.00000000</v>
   <i type="logical" name="LNICSALL"> T  </i>
   <i type="logical" name="ORBITALMAG"> F  </i>
   <i type="logical" name="LMAGBLOCH"> F  </i>
   <i type="logical" name="LCHIMAG"> F  </i>
   <i type="logical" name="LGAUGE"> T  </i>
   <i type="int" name="MAGATOM">     0</i>
   <v name="MAGDIPOL">      0.00000000      0.00000000      0.00000000</v>
   <v name="AVECCONST">      0.00000000      0.00000000      0.00000000</v>
  </separator>
  <separator name="response functions" >
   <i type="logical" name="LADDER"> F  </i>
   <i type="logical" name="LFXC"> F  </i>
   <i type="logical" name="LHARTREE"> T  </i>
   <i type="int" name="IBSE">     0</i>
   <v type="int" name="KPOINT">    -1     0     0     0</v>
   <i type="logical" name="LTCTE"> F  </i>
   <i type="logical" name="LTETE"> F  </i>
   <i type="logical" name="LTRIPLET"> F  </i>
   <i type="logical" name="LFXCEPS"> F  </i>
   <i type="logical" name="LFXHEG"> F  </i>
   <i type="int" name="NATURALO">     0</i>
   <i type="logical" name="L2ORDER"> F  </i>
   <i type="logical" name="LUSEW"> F  </i>
   <i name="ENCUTGW">     -2.00000000</i>
   <i name="ENCUTGWSOFT">     -2.00000000</i>
   <i name="ENCUTLF">     -1.00000000</i>
   <i type="int" name="LMAXMP2">    -1</i>
   <i name="SCISSOR">      0.00000000</i>
   <i type="int" name="NOMEGA">     0</i>
   <i type="int" name="NOMEGAR">     0</i>
   <i type="int" name="NBANDSGW">    -1</i>
   <i type="int" name="NBANDSO">    -1</i>
   <i type="int" name="NBANDSV">    -1</i>
   <i type="int" name="NELM">    40</i>
   <i type="int" name="NELMHF">     1</i>
   <i type="int" name="DIM">     3</i>
   <i type="int" name="ANTIRES">     0</i>
   <i name="OMEGAMAX">    -30.00000000</i>
   <i name="OMEGAMIN">    -30.00000000</i>
   <i name="OMEGATL">   -200.00000000</i>
   <i type="int" name="OMEGAGRID">     0</i>
   <i name="CSHIFT">     -0.10000000</i>
   <i type="logical" name="SELFENERGY"> F  </i>
   <i type="logical" name="LSPECTRAL"> F  </i>
   <i type="logical" name="LSPECTRALGW"> F  </i>
   <i type="logical" name="LSINGLES"> F  </i>
   <i type="logical" name="LFERMIGW"> F  </i>
   <i type="logical" name="ODDONLYGW"> F  </i>
   <i type="logical" name="EVENONLYGW"> F  </i>
   <i type="int" name="NKREDLFX">     1</i>
   <i type="int" name="NKREDLFY">     1</i>
   <i type="int" name="NKREDLFZ">     1</i>
   <i type="int" name="MAXMEM">  1800</i>
   <i type="int" name="TELESCOPE">     0</i>
   <i type="int" name="TAUPAR">     1</i>
   <i type="int" name="OMEGAPAR">    -1</i>
   <i name="LAMBDA">      1.00000000</i>
  </separator>
  <separator name="External order field" >
   <i name="OFIELD_KAPPA">      0.00000000</i>
   <v name="OFIELD_K">      0.00000000      0.00000000      0.00000000</v>
   <i name="OFIELD_Q6_NEAR">      0.00000000</i>
   <i name="OFIELD_Q6_FAR">      0.00000000</i>
   <i name="OFIELD_A">      0.00000000</i>
  </separator>
 </parameters>
 <atominfo>
  <atoms>     154 </atoms>
  <types>       4 </types>
  <array name="atoms" >
   <dimension dim="1">ion</dimension>
   <field type="string">element</field>
   <field type="int">atomtype</field>
   <set>
    <rc><c>Sr</c><c>   1</c></rc>
    <rc><c>Sr</c><c>   1</c></rc>
    <rc><c>Sr</c><c>   1</c></rc>
    <rc><c>Sr</c><c>   1</c></rc>
    <rc><c>Sr</c><c>   1</c></rc>
    <rc><c>Sr</c><c>   1</c></rc>
    <rc><c>Sr</c><c>   1</c></rc>
    <rc><c>Sr</c><c>   1</c></rc>
    <rc><c>Sr</c><c>   1</c></rc>
    <rc><c>Sr</c><c>   1</c></rc>
    <rc><c>Sr</c><c>   1</c></rc>
    <rc><c>Sr</c><c>   1</c></rc>
    <rc><c>Sr</c><c>   1</c></rc>
    <rc><c>Sr</c><c>   1</c></rc>
    <rc><c>Sr</c><c>   1</c></rc>
    <rc><c>Sr</c><c>   1</c></rc>
    <rc><c>Sr</c><c>   1</c></rc>
    <rc><c>Sr</c><c>   1</c></rc>
    <rc><c>Sr</c><c>   1</c></rc>
    <rc><c>Sr</c><c>   1</c></rc>
    <rc><c>Sr</c><c>   1</c></rc>
    <rc><c>Sr</c><c>   1</c></rc>
    <rc><c>Sr</c><c>   1</c></rc>
    <rc><c>Sr</c><c>   1</c></rc>
    <rc><c>Sr</c><c>   1</c></rc>
    <rc><c>Sr</c><c>   1</c></rc>
    <rc><c>Sr</c><c>   1</c></rc>
    <rc><c>Sr</c><c>   1</c></rc>
    <rc><c>Sr</c><c>   1</c></rc>
    <rc><c>Sr</c><c>   1</c></rc>
    <rc><c>Sr</c><c>   1</c></rc>
    <rc><c>Sr</c><c>   1</c></rc>
    <rc><c>Ti</c><c>   2</c></rc>
    <rc><c>Ti</c><c>   2</c></rc>
    <rc><c>Ti</c><c>   2</c></rc>
    <rc><c>Ti</c><c>   2</c></rc>
    <rc><c>Ti</c><c>   2</c></rc>
    <rc><c>Ti</c><c>   2</c></rc>
    <rc><c>Ti</c><c>   2</c></rc>
    <rc><c>Ti</c><c>   2</c></rc>
    <rc><c>Ti</c><c>   2</c></rc>
    <rc><c>Ti</c><c>   2</c></rc>
    <rc><c>Ti</c><c>   2</c></rc>
    <rc><c>Ti</c><c>   2</c></rc>
    <rc><c>Ti</c><c>   2</c></rc>
    <rc><c>Ti</c><c>   2</c></rc>
    <rc><c>Ti</c><c>   2</c></rc>
    <rc><c>Ti</c><c>   2</c></rc>
    <rc><c>Ti</c><c>   2</c></rc>
    <rc><c>Ti</c><c>   2</c></rc>
    <rc><c>Ti</c><c>   2</c></rc>
    <rc><c>Ti</c><c>   2</c></rc>
    <rc><c>Fe</c><c>   3</c></rc>
    <rc><c>Fe</c><c>   3</c></rc>
    <rc><c>Fe</c><c>   3</c></rc>
    <rc><c>Fe</c><c>   3</c></rc>
    <rc><c>Fe</c><c>   3</c></rc>
    <rc><c>Fe</c><c>   3</c></rc>
    <rc><c>Fe</c><c>   3</c></rc>
    <rc><c>Fe</c><c>   3</c></rc>
    <rc><c>Fe</c><c>   3</c></rc>
    <rc><c>Fe</c><c>   3</c></rc>
    <rc><c>Fe</c><c>   3</c></rc>
    <rc><c>Fe</c><c>   3</c></rc>
    <rc><c>O </c><c>   4</c></rc>
    <rc><c>O </c><c>   4</c></rc>
    <rc><c>O </c><c>   4</c></rc>
    <rc><c>O </c><c>   4</c></rc>
    <rc><c>O </c><c>   4</c></rc>
    <rc><c>O </c><c>   4</c></rc>
    <rc><c>O </c><c>   4</c></rc>
    <rc><c>O </c><c>   4</c></rc>
    <rc><c>O </c><c>   4</c></rc>
    <rc><c>O </c><c>   4</c></rc>
    <rc><c>O </c><c>   4</c></rc>
    <rc><c>O </c><c>   4</c></rc>
    <rc><c>O </c><c>   4</c></rc>
    <rc><c>O </c><c>   4</c></rc>
    <rc><c>O </c><c>   4</c></rc>
    <rc><c>O </c><c>   4</c></rc>
    <rc><c>O </c><c>   4</c></rc>
    <rc><c>O </c><c>   4</c></rc>
    <rc><c>O </c><c>   4</c></rc>
    <rc><c>O </c><c>   4</c></rc>
    <rc><c>O </c><c>   4</c></rc>
    <rc><c>O </c><c>   4</c></rc>
    <rc><c>O </c><c>   4</c></rc>
    <rc><c>O </c><c>   4</c></rc>
    <rc><c>O </c><c>   4</c></rc>
    <rc><c>O </c><c>   4</c></rc>
    <rc><c>O </c><c>   4</c></rc>
    <rc><c>O </c><c>   4</c></rc>
    <rc><c>O </c><c>   4</c></rc>
    <rc><c>O </c><c>   4</c></rc>
    <rc><c>O </c><c>   4</c></rc>
    <rc><c>O </c><c>   4</c></rc>
    <rc><c>O </c><c>   4</c></rc>
    <rc><c>O </c><c>   4</c></rc>
    <rc><c>O </c><c>   4</c></rc>
    <rc><c>O </c><c>   4</c></rc>
    <rc><c>O </c><c>   4</c></rc>
    <rc><c>O </c><c>   4</c></rc>
    <rc><c>O </c><c>   4</c></rc>
    <rc><c>O </c><c>   4</c></rc>
    <rc><c>O </c><c>   4</c></rc>
    <rc><c>O </c><c>   4</c></rc>
    <rc><c>O </c><c>   4</c></rc>
    <rc><c>O </c><c>   4</c></rc>
    <rc><c>O </c><c>   4</c></rc>
    <rc><c>O </c><c>   4</c></rc>
    <rc><c>O </c><c>   4</c></rc>
    <rc><c>O </c><c>   4</c></rc>
    <rc><c>O </c><c>   4</c></rc>
    <rc><c>O </c><c>   4</c></rc>
    <rc><c>O </c><c>   4</c></rc>
    <rc><c>O </c><c>   4</c></rc>
    <rc><c>O </c><c>   4</c></rc>
    <rc><c>O </c><c>   4</c></rc>
    <rc><c>O </c><c>   4</c></rc>
    <rc><c>O </c><c>   4</c></rc>
    <rc><c>O </c><c>   4</c></rc>
    <rc><c>O </c><c>   4</c></rc>
    <rc><c>O </c><c>   4</c></rc>
    <rc><c>O </c><c>   4</c></rc>
    <rc><c>O </c><c>   4</c></rc>
    <rc><c>O </c><c>   4</c></rc>
    <rc><c>O </c><c>   4</c></rc>
    <rc><c>O </c><c>   4</c></rc>
    <rc><c>O </c><c>   4</c></rc>
    <rc><c>O </c><c>   4</c></rc>
    <rc><c>O </c><c>   4</c></rc>
    <rc><c>O </c><c>   4</c></rc>
    <rc><c>O </c><c>   4</c></rc>
    <rc><c>O </c><c>   4</c></rc>
    <rc><c>O </c><c>   4</c></rc>
    <rc><c>O </c><c>   4</c></rc>
    <rc><c>O </c><c>   4</c></rc>
    <rc><c>O </c><c>   4</c></rc>
    <rc><c>O </c><c>   4</c></rc>
    <rc><c>O </c><c>   4</c></rc>
    <rc><c>O </c><c>   4</c></rc>
    <rc><c>O </c><c>   4</c></rc>
    <rc><c>O </c><c>   4</c></rc>
    <rc><c>O </c><c>   4</c></rc>
    <rc><c>O </c><c>   4</c></rc>
    <rc><c>O </c><c>   4</c></rc>
    <rc><c>O </c><c>   4</c></rc>
    <rc><c>O </c><c>   4</c></rc>
    <rc><c>O </c><c>   4</c></rc>
    <rc><c>O </c><c>   4</c></rc>
    <rc><c>O </c><c>   4</c></rc>
    <rc><c>O </c><c>   4</c></rc>
    <rc><c>O </c><c>   4</c></rc>
    <rc><c>O </c><c>   4</c></rc>
   </set>
  </array>
  <array name="atomtypes" >
   <dimension dim="1">type</dimension>
   <field type="int">atomspertype</field>
   <field type="string">element</field>
   <field>mass</field>
   <field>valence</field>
   <field type="string">pseudopotential</field>
   <set>
    <rc><c>  32</c><c>Sr</c><c>     87.62000000</c><c>     10.00000000</c><c>  PAW_PBE Sr_sv 07Sep2000               </c></rc>
    <rc><c>  20</c><c>Ti</c><c>     47.88000000</c><c>      4.00000000</c><c>  PAW_PBE Ti 08Apr2002                  </c></rc>
    <rc><c>  12</c><c>Fe</c><c>     55.84700000</c><c>      8.00000000</c><c>  PAW_PBE Fe 06Sep2000                  </c></rc>
    <rc><c>  90</c><c>O </c><c>     16.00000000</c><c>      6.00000000</c><c>  PAW_PBE O 08Apr2002                   </c></rc>
   </set>
  </array>
 </atominfo>
 <structure name="initialpos" >
  <crystal>
   <varray name="basis" >
    <v>      11.22528860       0.03670806       0.02362489 </v>
    <v>       0.03672181      11.26541895      -0.00010981 </v>
    <v>       0.03413568      -0.00038576      15.97548752 </v>
   </varray>
   <i name="volume">   2020.19085323 </i>
   <varray name="rec_basis" >
    <v>       0.08908592      -0.00029039      -0.00019036 </v>
    <v>      -0.00029029       0.08876817       0.00000276 </v>
    <v>      -0.00013174       0.00000104       0.06259618 </v>
   </varray>
  </crystal>
  <varray name="positions" >
   <v>       0.00374464       0.24315896       0.12426492 </v>
   <v>       0.00164270       0.25700736       0.63268469 </v>
   <v>       0.00294357       0.74980741       0.12162565 </v>
   <v>       0.99370705       0.73799471       0.63174220 </v>
   <v>       0.50176766       0.24503577       0.12944863 </v>
   <v>       0.50215956       0.25971031       0.62765282 </v>
   <v>       0.48207961       0.75613139       0.13299582 </v>
   <v>       0.51937696       0.75077393       0.63211306 </v>
   <v>       0.00584968       0.25924014       0.37134398 </v>
   <v>       0.99908015       0.24414447       0.87087569 </v>
   <v>       0.98698499       0.73814991       0.36405885 </v>
   <v>       0.00723254       0.75388159       0.86666910 </v>
   <v>       0.49375960       0.24985979       0.37317235 </v>
   <v>       0.50386708       0.24895220       0.86837059 </v>
   <v>       0.50137686       0.75544152       0.37494961 </v>
   <v>       0.49571475       0.75271566       0.87311366 </v>
   <v>       0.25178369       0.00886831       0.12308457 </v>
   <v>       0.25981378       0.02163792       0.63197592 </v>
   <v>       0.24591729       0.49589596       0.12730337 </v>
   <v>       0.25641554       0.48732621       0.63093456 </v>
   <v>       0.75035111       0.01283107       0.13013431 </v>
   <v>       0.74901352       0.00753603       0.63059681 </v>
   <v>       0.75119948       0.47981808       0.13406916 </v>
   <v>       0.74963088       0.49130285       0.62980067 </v>
   <v>       0.25605624       0.02124093       0.37115110 </v>
   <v>       0.24961261       0.00845222       0.87581421 </v>
   <v>       0.25131683       0.48879077       0.36822754 </v>
   <v>       0.24390839       0.49410621       0.87218829 </v>
   <v>       0.73438993       0.99985826       0.37274800 </v>
   <v>       0.75237307       0.01428619       0.86776099 </v>
   <v>       0.74447267       0.49588335       0.37887277 </v>
   <v>       0.75155935       0.48689842       0.86400865 </v>
   <v>       0.00275751       0.48931852       0.99961245 </v>
   <v>       0.99554642       0.49208878       0.50234233 </v>
   <v>       0.49778841       0.00358156       0.00180152 </v>
   <v>       0.48386839       0.48778990       0.99969476 </v>
   <v>       0.24581573       0.75292566       0.00370266 </v>
   <v>       0.24035326       0.73193072       0.49083297 </v>
   <v>       0.75157990       0.24754778       0.99814109 </v>
   <v>       0.75538260       0.76953221       0.98902370 </v>
   <v>       0.75067159       0.74911803       0.50198610 </v>
   <v>       0.24934590       0.24798444       0.24773389 </v>
   <v>       0.25141818       0.25455620       0.75281663 </v>
   <v>       0.24333336       0.75589644       0.24948695 </v>
   <v>       0.25265819       0.74673136       0.75939292 </v>
   <v>       0.75251636       0.24309036       0.25665675 </v>
   <v>       0.74673921       0.74750261       0.25701187 </v>
   <v>       0.75377121       0.74791877       0.74833609 </v>
   <v>       0.00046600       0.00159234       0.75001406 </v>
   <v>       0.99887966       0.49834482       0.24835548 </v>
   <v>       0.50241070       0.00036485       0.74840932 </v>
   <v>       0.49928472       0.50297249       0.25036480 </v>
   <v>       0.00681636       0.00402853       0.99672831 </v>
   <v>       0.01853715       0.97383396       0.51227534 </v>
   <v>       0.51400392       0.01325782       0.50155619 </v>
   <v>       0.50235587       0.50238557       0.50198576 </v>
   <v>       0.24844052       0.24416247       0.99853534 </v>
   <v>       0.25703231       0.26262212       0.49848662 </v>
   <v>       0.73816936       0.26171391       0.49950697 </v>
   <v>       0.75258621       0.25162703       0.74688433 </v>
   <v>       0.00161496       0.99606827       0.23721854 </v>
   <v>       0.99844803       0.49898032       0.75021888 </v>
   <v>       0.49718110       0.99876843       0.25082859 </v>
   <v>       0.50364194       0.50182580       0.74717142 </v>
   <v>       0.11750495       0.13183192       0.25242205 </v>
   <v>       0.12210445       0.12857917       0.74427059 </v>
   <v>       0.11191747       0.63662362       0.24129111 </v>
   <v>       0.12629907       0.63304073       0.73625072 </v>
   <v>       0.61850603       0.13088519       0.25381757 </v>
   <v>       0.61916500       0.12615257       0.74131090 </v>
   <v>       0.61920294       0.63586536       0.23208808 </v>
   <v>       0.62709340       0.63210053       0.74203399 </v>
   <v>       0.38554059       0.37183787       0.25017774 </v>
   <v>       0.37915562       0.37303701       0.75714228 </v>
   <v>       0.37479286       0.86626257       0.25625634 </v>
   <v>       0.37768917       0.86779769       0.74967530 </v>
   <v>       0.88406203       0.36448973       0.25285086 </v>
   <v>       0.88272366       0.36934500       0.75923144 </v>
   <v>       0.87855920       0.85677632       0.24040789 </v>
   <v>       0.88298719       0.86744508       0.75905204 </v>
   <v>       0.36844765       0.12095282       0.24673774 </v>
   <v>       0.37353126       0.12019850       0.75089457 </v>
   <v>       0.36155756       0.61953358       0.23916545 </v>
   <v>       0.37087618       0.62690918       0.73645306 </v>
   <v>       0.86994452       0.10700842       0.25366358 </v>
   <v>       0.87109670       0.11723515       0.75258745 </v>
   <v>       0.86239875       0.61379400       0.24511174 </v>
   <v>       0.87212349       0.62304886       0.74347075 </v>
   <v>       0.13406328       0.38561223       0.25178478 </v>
   <v>       0.13082222       0.38153577       0.75573268 </v>
   <v>       0.12261771       0.88342480       0.27770729 </v>
   <v>       0.13407612       0.87542416       0.73889727 </v>
   <v>       0.63400554       0.38196937       0.26233656 </v>
   <v>       0.62973048       0.37829719       0.75004664 </v>
   <v>       0.63415440       0.87713184       0.24172934 </v>
   <v>       0.63367810       0.87896800       0.75258726 </v>
   <v>       0.35338271       0.39059353       0.99388866 </v>
   <v>       0.35849830       0.40200453       0.49423559 </v>
   <v>       0.35965909       0.88736327       0.99383910 </v>
   <v>       0.85668252       0.39233782       0.99592849 </v>
   <v>       0.86317273       0.38617360       0.49163189 </v>
   <v>       0.85945664       0.89385973       0.99850314 </v>
   <v>       0.88534546       0.89192928       0.47072807 </v>
   <v>       0.14412040       0.10882809       0.00186372 </v>
   <v>       0.08533715       0.10587129       0.46763606 </v>
   <v>       0.13017793       0.61500335       0.01109433 </v>
   <v>       0.13969352       0.61158272       0.51928830 </v>
   <v>       0.64300433       0.10259872       0.00352541 </v>
   <v>       0.65024842       0.11066060       0.50418319 </v>
   <v>       0.64469919       0.61608780       0.50767404 </v>
   <v>       0.10700328       0.36112143       0.99123374 </v>
   <v>       0.11033340       0.36241146       0.49761764 </v>
   <v>       0.11060833       0.85533703       0.98988059 </v>
   <v>       0.16557507       0.87450045       0.52593581 </v>
   <v>       0.60979562       0.36374562       0.99831253 </v>
   <v>       0.60622378       0.36347446       0.48780005 </v>
   <v>       0.60540810       0.83383203       0.01320214 </v>
   <v>       0.61893437       0.86293680       0.49671303 </v>
   <v>       0.39521545       0.13926368       0.00002972 </v>
   <v>       0.37322837       0.12433197       0.50189546 </v>
   <v>       0.38768082       0.63926282       0.01083803 </v>
   <v>       0.39144633       0.68495857       0.51962402 </v>
   <v>       0.89103881       0.14337024       0.00108152 </v>
   <v>       0.82563631       0.64673745       0.04674845 </v>
   <v>       0.89234728       0.64200694       0.49952145 </v>
   <v>       0.01096922       0.98930792       0.12157226 </v>
   <v>       0.98262548       0.00402220       0.62414077 </v>
   <v>       0.99808801       0.48673419       0.12430209 </v>
   <v>       0.99039079       0.48955062       0.62358678 </v>
   <v>       0.49509806       0.99616445       0.12378009 </v>
   <v>       0.49007708       0.98354493       0.62292038 </v>
   <v>       0.51048013       0.49488681       0.12174317 </v>
   <v>       0.49979816       0.49129364       0.62285270 </v>
   <v>       0.00929778       0.00222784       0.87191162 </v>
   <v>       0.00658578       0.51060620       0.37385422 </v>
   <v>       0.99419644       0.52712339       0.88097365 </v>
   <v>       0.49273008       0.99086957       0.37935223 </v>
   <v>       0.50894981       0.99607657       0.87564805 </v>
   <v>       0.49684871       0.52832244       0.37230783 </v>
   <v>       0.51160672       0.52339603       0.88196889 </v>
   <v>       0.25517361       0.25206358       0.37263352 </v>
   <v>       0.24926695       0.24205926       0.87389695 </v>
   <v>       0.24905165       0.72961097       0.37607701 </v>
   <v>       0.25007022       0.73227575       0.87577426 </v>
   <v>       0.76786196       0.23140963       0.37896495 </v>
   <v>       0.74331387       0.24205885       0.87712077 </v>
   <v>       0.74319608       0.73941800       0.37283203 </v>
   <v>       0.74830002       0.72860882       0.87651852 </v>
   <v>       0.24774804       0.25708847       0.12473181 </v>
   <v>       0.24978840       0.25372090       0.62500452 </v>
   <v>       0.23930313       0.77525462       0.12717079 </v>
   <v>       0.74929879       0.24806146       0.12853860 </v>
   <v>       0.76813033       0.25080723       0.61966383 </v>
   <v>       0.76385662       0.77033618       0.62265335 </v>
  </varray>
 </structure>
 <calculation>
  <scstep>
   <time name="dav">  607.68  607.77</time>
   <time name="total">  614.85  615.01</time>
   <energy>
    <i name="alphaZ">   5580.66560580 </i>
    <i name="ewald"> -61102.69561881 </i>
    <i name="hartreedc"> -17368.50419839 </i>
    <i name="XCdc">   3072.80790641 </i>
    <i name="pawpsdc"> 113983.64523688 </i>
    <i name="pawaedc">-113034.52531112 </i>
    <i name="eentropy">     -0.00000000 </i>
    <i name="bandstr">  -7134.94540625 </i>
    <i name="atom">  74916.81196153 </i>
    <i name="e_fr_energy">  -1086.73982396 </i>
    <i name="e_wo_entrp">  -1086.73982396 </i>
    <i name="e_0_energy">  -1086.73982396 </i>
   </energy>
  </scstep>
  <scstep>
   <time name="diag">   65.12   65.13</time>
   <time name="diis">   62.32   62.33</time>
   <time name="orth">   33.57   33.56</time>
   <time name="total">  168.22  168.30</time>
   <energy>
    <i name="e_fr_energy">  -1086.73982501 </i>
    <i name="e_wo_entrp">  -1086.73982501 </i>
    <i name="e_0_energy">  -1086.73982501 </i>
   </energy>
  </scstep>
  <scstep>
   <time name="diag">   65.11   65.12</time>
   <time name="diis">   58.83   58.84</time>
   <time name="orth">   33.55   33.56</time>
   <time name="total">  164.69  164.79</time>
   <energy>
    <i name="e_fr_energy">  -1086.73982546 </i>
    <i name="e_wo_entrp">  -1086.73982546 </i>
    <i name="e_0_energy">  -1086.73982546 </i>
   </energy>
  </scstep>
  <scstep>
   <time name="diag">   65.10   65.14</time>
   <time name="diis">   54.13   54.17</time>
   <time name="orth">   33.55   33.55</time>
   <time name="total">  160.00  160.12</time>
   <energy>
    <i name="e_fr_energy">  -1086.73982597 </i>
    <i name="e_wo_entrp">  -1086.73982597 </i>
    <i name="e_0_energy">  -1086.73982597 </i>
   </energy>
  </scstep>
  <scstep>
   <time name="diag">   65.00   65.07</time>
   <time name="diis">   53.43   53.44</time>
   <time name="orth">   33.53   33.53</time>
   <time name="total">  159.18  159.31</time>
   <energy>
    <i name="e_fr_energy">  -1086.73982627 </i>
    <i name="e_wo_entrp">  -1086.73982627 </i>
    <i name="e_0_energy">  -1086.73982627 </i>
   </energy>
  </scstep>
  <scstep>
   <time name="diag">   65.12   65.13</time>
   <time name="diis">   48.66   48.73</time>
   <time name="orth">   33.58   33.60</time>
   <time name="total">  154.56  154.74</time>
   <energy>
    <i name="e_fr_energy">  -1086.73982652 </i>
    <i name="e_wo_entrp">  -1086.73982652 </i>
    <i name="e_0_energy">  -1086.73982652 </i>
   </energy>
  </scstep>
  <scstep>
   <time name="diag">   65.13   65.24</time>
   <time name="diis">   48.06   48.07</time>
   <time name="orth">   33.46   33.46</time>
   <time name="total">  153.83  153.99</time>
   <energy>
    <i name="e_fr_energy">  -1086.73982667 </i>
    <i name="e_wo_entrp">  -1086.73982667 </i>
    <i name="e_0_energy">  -1086.73982667 </i>
   </energy>
  </scstep>
  <scstep>
   <time name="diag">   65.14   65.17</time>
   <time name="diis">   45.59   45.64</time>
   <time name="orth">   33.55   33.55</time>
   <time name="total">  145.34  145.50</time>
   <energy>
    <i name="alphaZ">   5580.66560580 </i>
    <i name="ewald"> -61102.69561881 </i>
    <i name="hartreedc"> -17368.49691380 </i>
    <i name="XCdc">   3072.80705096 </i>
    <i name="pawpsdc"> 113983.29898167 </i>
    <i name="pawaedc">-113034.17607346 </i>
    <i name="eentropy">     -0.00000000 </i>
    <i name="bandstr">  -7134.95482065 </i>
    <i name="atom">  74916.81196153 </i>
    <i name="e_fr_energy">  -1086.73982676 </i>
    <i name="e_wo_entrp">  -1086.73982676 </i>
    <i name="e_0_energy">  -1086.73982676 </i>
   </energy>
  </scstep>
  <structure>
   <crystal>
    <varray name="basis" >
     <v>      11.22528860       0.03670806       0.02362489 </v>
     <v>       0.03672181      11.26541895      -0.00010981 </v>
     <v>       0.03413568      -0.00038576      15.97548752 </v>
    </varray>
    <i name="volume">   2020.19085323 </i>
    <varray name="rec_basis" >
     <v>       0.08908592      -0.00029039      -0.00019036 </v>
     <v>      -0.00029029       0.08876817       0.00000276 </v>
     <v>      -0.00013174       0.00000104       0.06259618 </v>
    </varray>
   </crystal>
   <varray name="positions" >
    <v>       0.00374464       0.24315896       0.12426492 </v>
    <v>       0.00164270       0.25700736       0.63268469 </v>
    <v>       0.00294357       0.74980741       0.12162565 </v>
    <v>       0.99370705       0.73799471       0.63174220 </v>
    <v>       0.50176766       0.24503577       0.12944863 </v>
    <v>       0.50215956       0.25971031       0.62765282 </v>
    <v>       0.48207961       0.75613139       0.13299582 </v>
    <v>       0.51937696       0.75077393       0.63211306 </v>
    <v>       0.00584968       0.25924014       0.37134398 </v>
    <v>       0.99908015       0.24414447       0.87087569 </v>
    <v>       0.98698499       0.73814991       0.36405885 </v>
    <v>       0.00723254       0.75388159       0.86666910 </v>
    <v>       0.49375960       0.24985979       0.37317235 </v>
    <v>       0.50386708       0.24895220       0.86837059 </v>
    <v>       0.50137686       0.75544152       0.37494961 </v>
    <v>       0.49571475       0.75271566       0.87311366 </v>
    <v>       0.25178369       0.00886831       0.12308457 </v>
    <v>       0.25981378       0.02163792       0.63197592 </v>
    <v>       0.24591729       0.49589596       0.12730337 </v>
    <v>       0.25641554       0.48732621       0.63093456 </v>
    <v>       0.75035111       0.01283107       0.13013431 </v>
    <v>       0.74901352       0.00753603       0.63059681 </v>
    <v>       0.75119948       0.47981808       0.13406916 </v>
    <v>       0.74963088       0.49130285       0.62980067 </v>
    <v>       0.25605624       0.02124093       0.37115110 </v>
    <v>       0.24961261       0.00845222       0.87581421 </v>
    <v>       0.25131683       0.48879077       0.36822754 </v>
    <v>       0.24390839       0.49410621       0.87218829 </v>
    <v>       0.73438993       0.99985826       0.37274800 </v>
    <v>       0.75237307       0.01428619       0.86776099 </v>
    <v>       0.74447267       0.49588335       0.37887277 </v>
    <v>       0.75155935       0.48689842       0.86400865 </v>
    <v>       0.00275751       0.48931852       0.99961245 </v>
    <v>       0.99554642       0.49208878       0.50234233 </v>
    <v>       0.49778841       0.00358156       0.00180152 </v>
    <v>       0.48386839       0.48778990       0.99969476 </v>
    <v>       0.24581573       0.75292566       0.00370266 </v>
    <v>       0.24035326       0.73193072       0.49083297 </v>
    <v>       0.75157990       0.24754778       0.99814109 </v>
    <v>       0.75538260       0.76953221       0.98902370 </v>
    <v>       0.75067159       0.74911803       0.50198610 </v>
    <v>       0.24934590       0.24798444       0.24773389 </v>
    <v>       0.25141818       0.25455620       0.75281663 </v>
    <v>       0.24333336       0.75589644       0.24948695 </v>
    <v>       0.25265819       0.74673136       0.75939292 </v>
    <v>       0.75251636       0.24309036       0.25665675 </v>
    <v>       0.74673921       0.74750261       0.25701187 </v>
    <v>       0.75377121       0.74791877       0.74833609 </v>
    <v>       0.00046600       0.00159234       0.75001406 </v>
    <v>       0.99887966       0.49834482       0.24835548 </v>
    <v>       0.50241070       0.00036485       0.74840932 </v>
    <v>       0.49928472       0.50297249       0.25036480 </v>
    <v>       0.00681636       0.00402853       0.99672831 </v>
    <v>       0.01853715       0.97383396       0.51227534 </v>
    <v>       0.51400392       0.01325782       0.50155619 </v>
    <v>       0.50235587       0.50238557       0.50198576 </v>
    <v>       0.24844052       0.24416247       0.99853534 </v>
    <v>       0.25703231       0.26262212       0.49848662 </v>
    <v>       0.73816936       0.26171391       0.49950697 </v>
    <v>       0.75258621       0.25162703       0.74688433 </v>
    <v>       0.00161496       0.99606827       0.23721854 </v>
    <v>       0.99844803       0.49898032       0.75021888 </v>
    <v>       0.49718110       0.99876843       0.25082859 </v>
    <v>       0.50364194       0.50182580       0.74717142 </v>
    <v>       0.11750495       0.13183192       0.25242205 </v>
    <v>       0.12210445       0.12857917       0.74427059 </v>
    <v>       0.11191747       0.63662362       0.24129111 </v>
    <v>       0.12629907       0.63304073       0.73625072 </v>
    <v>       0.61850603       0.13088519       0.25381757 </v>
    <v>       0.61916500       0.12615257       0.74131090 </v>
    <v>       0.61920294       0.63586536       0.23208808 </v>
    <v>       0.62709340       0.63210053       0.74203399 </v>
    <v>       0.38554059       0.37183787       0.25017774 </v>
    <v>       0.37915562       0.37303701       0.75714228 </v>
    <v>       0.37479286       0.86626257       0.25625634 </v>
    <v>       0.37768917       0.86779769       0.74967530 </v>
    <v>       0.88406203       0.36448973       0.25285086 </v>
    <v>       0.88272366       0.36934500       0.75923144 </v>
    <v>       0.87855920       0.85677632       0.24040789 </v>
    <v>       0.88298719       0.86744508       0.75905204 </v>
    <v>       0.36844765       0.12095282       0.24673774 </v>
    <v>       0.37353126       0.12019850       0.75089457 </v>
    <v>       0.36155756       0.61953358       0.23916545 </v>
    <v>       0.37087618       0.62690918       0.73645306 </v>
    <v>       0.86994452       0.10700842       0.25366358 </v>
    <v>       0.87109670       0.11723515       0.75258745 </v>
    <v>       0.86239875       0.61379400       0.24511174 </v>
    <v>       0.87212349       0.62304886       0.74347075 </v>
    <v>       0.13406328       0.38561223       0.25178478 </v>
    <v>       0.13082222       0.38153577       0.75573268 </v>
    <v>       0.12261771       0.88342480       0.27770729 </v>
    <v>       0.13407612       0.87542416       0.73889727 </v>
    <v>       0.63400554       0.38196937       0.26233656 </v>
    <v>       0.62973048       0.37829719       0.75004664 </v>
    <v>       0.63415440       0.87713184       0.24172934 </v>
    <v>       0.63367810       0.87896800       0.75258726 </v>
    <v>       0.35338271       0.39059353       0.99388866 </v>
    <v>       0.35849830       0.40200453       0.49423559 </v>
    <v>       0.35965909       0.88736327       0.99383910 </v>
    <v>       0.85668252       0.39233782       0.99592849 </v>
    <v>       0.86317273       0.38617360       0.49163189 </v>
    <v>       0.85945664       0.89385973       0.99850314 </v>
    <v>       0.88534546       0.89192928       0.47072807 </v>
    <v>       0.14412040       0.10882809       0.00186372 </v>
    <v>       0.08533715       0.10587129       0.46763606 </v>
    <v>       0.13017793       0.61500335       0.01109433 </v>
    <v>       0.13969352       0.61158272       0.51928830 </v>
    <v>       0.64300433       0.10259872       0.00352541 </v>
    <v>       0.65024842       0.11066060       0.50418319 </v>
    <v>       0.64469919       0.61608780       0.50767404 </v>
    <v>       0.10700328       0.36112143       0.99123374 </v>
    <v>       0.11033340       0.36241146       0.49761764 </v>
    <v>       0.11060833       0.85533703       0.98988059 </v>
    <v>       0.16557507       0.87450045       0.52593581 </v>
    <v>       0.60979562       0.36374562       0.99831253 </v>
    <v>       0.60622378       0.36347446       0.48780005 </v>
    <v>       0.60540810       0.83383203       0.01320214 </v>
    <v>       0.61893437       0.86293680       0.49671303 </v>
    <v>       0.39521545       0.13926368       0.00002972 </v>
    <v>       0.37322837       0.12433197       0.50189546 </v>
    <v>       0.38768082       0.63926282       0.01083803 </v>
    <v>       0.39144633       0.68495857       0.51962402 </v>
    <v>       0.89103881       0.14337024       0.00108152 </v>
    <v>       0.82563631       0.64673745       0.04674845 </v>
    <v>       0.89234728       0.64200694       0.49952145 </v>
    <v>       0.01096922       0.98930792       0.12157226 </v>
    <v>       0.98262548       0.00402220       0.62414077 </v>
    <v>       0.99808801       0.48673419       0.12430209 </v>
    <v>       0.99039079       0.48955062       0.62358678 </v>
    <v>       0.49509806       0.99616445       0.12378009 </v>
    <v>       0.49007708       0.98354493       0.62292038 </v>
    <v>       0.51048013       0.49488681       0.12174317 </v>
    <v>       0.49979816       0.49129364       0.62285270 </v>
    <v>       0.00929778       0.00222784       0.87191162 </v>
    <v>       0.00658578       0.51060620       0.37385422 </v>
    <v>       0.99419644       0.52712339       0.88097365 </v>
    <v>       0.49273008       0.99086957       0.37935223 </v>
    <v>       0.50894981       0.99607657       0.87564805 </v>
    <v>       0.49684871       0.52832244       0.37230783 </v>
    <v>       0.51160672       0.52339603       0.88196889 </v>
    <v>       0.25517361       0.25206358       0.37263352 </v>
    <v>       0.24926695       0.24205926       0.87389695 </v>
    <v>       0.24905165       0.72961097       0.37607701 </v>
    <v>       0.25007022       0.73227575       0.87577426 </v>
    <v>       0.76786196       0.23140963       0.37896495 </v>
    <v>       0.74331387       0.24205885       0.87712077 </v>
    <v>       0.74319608       0.73941800       0.37283203 </v>
    <v>       0.74830002       0.72860882       0.87651852 </v>
    <v>       0.24774804       0.25708847       0.12473181 </v>
    <v>       0.24978840       0.25372090       0.62500452 </v>
    <v>       0.23930313       0.77525462       0.12717079 </v>
    <v>       0.74929879       0.24806146       0.12853860 </v>
    <v>       0.76813033       0.25080723       0.61966383 </v>
    <v>       0.76385662       0.77033618       0.62265335 </v>
   </varray>
  </structure>
  <varray name="forces" >
   <v>      -0.00580916       0.02103483      -0.02067798 </v>
   <v>       0.00020821       0.00083311      -0.01047602 </v>
   <v>      -0.00144185      -0.00103414      -0.00558691 </v>
   <v>      -0.01032944      -0.01903884       0.01253752 </v>
   <v>       0.00131430      -0.00485626      -0.00496630 </v>
   <v>       0.00963946       0.00493202      -0.00849491 </v>
   <v>      -0.01353156       0.01134953       0.02554406 </v>
   <v>       0.01499711      -0.00466908       0.00024664 </v>
   <v>       0.01254974      -0.00327436       0.00706896 </v>
   <v>      -0.00835752       0.00405413       0.00885051 </v>
   <v>       0.01502889      -0.00072335       0.00642750 </v>
   <v>       0.00260521      -0.02446580       0.00337726 </v>
   <v>       0.00615326      -0.00429536      -0.00221855 </v>
   <v>       0.00156133       0.00741217       0.01675653 </v>
   <v>       0.00451268      -0.02474609      -0.00881626 </v>
   <v>      -0.00948351      -0.00268869       0.00941502 </v>
   <v>      -0.00371044       0.00576576      -0.01114923 </v>
   <v>      -0.00662765       0.01247912      -0.00534781 </v>
   <v>       0.01147126      -0.00425666       0.00247078 </v>
   <v>       0.00211474      -0.00424371      -0.01529401 </v>
   <v>      -0.00608237      -0.00993593       0.00239114 </v>
   <v>      -0.00827074       0.00865314      -0.02304143 </v>
   <v>       0.00748642      -0.01197804      -0.01031189 </v>
   <v>       0.00666665      -0.01073250      -0.01360371 </v>
   <v>       0.00077389      -0.01444866      -0.00371840 </v>
   <v>      -0.00337238       0.00498812       0.01139901 </v>
   <v>      -0.00002739      -0.02760264      -0.00820856 </v>
   <v>      -0.01380792      -0.01125561       0.00616020 </v>
   <v>      -0.00114393       0.01657062       0.01449490 </v>
   <v>      -0.00474393       0.02582598       0.01404420 </v>
   <v>       0.00751904      -0.01035040       0.00324099 </v>
   <v>       0.00423454      -0.03405180       0.01532368 </v>
   <v>      -0.01833705      -0.03127831       0.03440156 </v>
   <v>       0.00002955       0.00204132       0.00594989 </v>
   <v>       0.00228783      -0.02466578       0.01199367 </v>
   <v>      -0.01796672       0.00190872       0.02668345 </v>
   <v>       0.02393104       0.02069210       0.00156839 </v>
   <v>       0.01192143       0.00446419      -0.04464794 </v>
   <v>       0.01514492      -0.00684129      -0.01456187 </v>
   <v>       0.02967484       0.04535681      -0.00887460 </v>
   <v>      -0.01454105       0.01926256      -0.00993251 </v>
   <v>       0.01683486       0.03114431       0.01631540 </v>
   <v>       0.01027658      -0.00801604      -0.00216484 </v>
   <v>      -0.00074477      -0.00649045       0.00057780 </v>
   <v>      -0.04402919       0.00697221       0.03425413 </v>
   <v>       0.01809627       0.00139998       0.03802765 </v>
   <v>      -0.00889091      -0.00090376      -0.03196350 </v>
   <v>       0.00625199       0.00818939       0.00065106 </v>
   <v>       0.01565487      -0.02969773       0.01317297 </v>
   <v>       0.02148922      -0.00635752      -0.01590421 </v>
   <v>       0.00151953      -0.02020585       0.00128302 </v>
   <v>      -0.03671061       0.01797513      -0.00060661 </v>
   <v>      -0.00177886      -0.02058203      -0.00800057 </v>
   <v>      -0.00462930       0.00036446       0.01098394 </v>
   <v>       0.01431310      -0.00595637       0.00123772 </v>
   <v>      -0.00693340      -0.00897466       0.00228819 </v>
   <v>       0.00036560      -0.00796228      -0.01821593 </v>
   <v>      -0.01748273       0.00325079       0.00805117 </v>
   <v>       0.02217168      -0.01268710       0.00490871 </v>
   <v>      -0.00583004       0.00636056       0.01048130 </v>
   <v>      -0.00709981       0.01133149       0.04420391 </v>
   <v>      -0.00052954       0.00014942      -0.00809360 </v>
   <v>      -0.00816119       0.00873717      -0.00334137 </v>
   <v>       0.00794475      -0.00709891      -0.01981055 </v>
   <v>       0.01412824      -0.00356916       0.01334702 </v>
   <v>       0.00351537      -0.00069734      -0.00045661 </v>
   <v>       0.00896561      -0.00002595      -0.01511451 </v>
   <v>       0.03949930       0.00585102       0.01227615 </v>
   <v>       0.00083937      -0.00777405      -0.00032667 </v>
   <v>       0.03480726       0.01081921      -0.01858714 </v>
   <v>       0.01063450      -0.00913024       0.00981633 </v>
   <v>       0.00062488       0.00113068       0.00006157 </v>
   <v>       0.01876485       0.01761874       0.00294416 </v>
   <v>      -0.00046836       0.01849689      -0.00622647 </v>
   <v>      -0.01197660       0.01133466      -0.01316810 </v>
   <v>      -0.01840116      -0.00485433       0.01240067 </v>
   <v>      -0.01471000       0.00140189       0.00543221 </v>
   <v>       0.00759747       0.00535323       0.01223485 </v>
   <v>       0.00278442       0.00194549      -0.02057503 </v>
   <v>      -0.00796917       0.01359212       0.00678359 </v>
   <v>      -0.00789037      -0.01083687       0.00064538 </v>
   <v>       0.00229958       0.01465390       0.01060918 </v>
   <v>       0.00589056       0.00726759       0.01225083 </v>
   <v>       0.00925659       0.01468032       0.01538728 </v>
   <v>       0.00441295       0.00871907       0.00470117 </v>
   <v>       0.00014137       0.01232191       0.00856285 </v>
   <v>      -0.01579834       0.01092447       0.01431667 </v>
   <v>       0.00541502       0.01173388      -0.00269138 </v>
   <v>      -0.02248984      -0.00416001      -0.00858541 </v>
   <v>      -0.02204982      -0.01039677       0.00849215 </v>
   <v>      -0.00562395       0.00078251      -0.01926709 </v>
   <v>       0.01501247      -0.00773005      -0.01385968 </v>
   <v>      -0.01545956      -0.01373023      -0.01273841 </v>
   <v>      -0.00478049      -0.01210117       0.01074148 </v>
   <v>      -0.02406861      -0.00015834       0.00645504 </v>
   <v>      -0.00121354      -0.02205927      -0.00515661 </v>
   <v>       0.00490346      -0.00873058      -0.00086936 </v>
   <v>      -0.01183583       0.00606406      -0.00343180 </v>
   <v>       0.00970104       0.00047828      -0.00300387 </v>
   <v>       0.00534284       0.02686473       0.00534972 </v>
   <v>       0.01504628      -0.00863717      -0.00119344 </v>
   <v>      -0.03632914      -0.03782176      -0.02010698 </v>
   <v>      -0.00231220      -0.01079220      -0.01395563 </v>
   <v>       0.01243165       0.00822133       0.00989375 </v>
   <v>       0.00646273       0.01064706      -0.02115978 </v>
   <v>      -0.00921499       0.01125647      -0.01215761 </v>
   <v>      -0.00847522      -0.00663932       0.01363352 </v>
   <v>       0.00965750      -0.00192116       0.01505985 </v>
   <v>       0.02244453       0.01378016       0.01554347 </v>
   <v>       0.01670328       0.01221440      -0.00559492 </v>
   <v>      -0.01984448       0.00293386      -0.00403373 </v>
   <v>       0.00291679       0.00719829       0.00080051 </v>
   <v>      -0.00431820       0.01121121      -0.00588373 </v>
   <v>      -0.01443800       0.02754875       0.02562811 </v>
   <v>      -0.00099807      -0.01220789       0.00090524 </v>
   <v>      -0.00750571       0.01386189      -0.01123603 </v>
   <v>       0.00805800       0.01028794      -0.00285721 </v>
   <v>       0.02180271       0.01646773       0.00510429 </v>
   <v>       0.00299789       0.00733059      -0.00000127 </v>
   <v>       0.01331379      -0.00112393      -0.00216636 </v>
   <v>      -0.00625319       0.00273919      -0.01785844 </v>
   <v>       0.00862279       0.00438932      -0.01350354 </v>
   <v>      -0.00225646      -0.02239692       0.00032942 </v>
   <v>      -0.00516112      -0.00214512       0.02392586 </v>
   <v>      -0.00619259      -0.02458103      -0.01616801 </v>
   <v>      -0.00546275      -0.00029152      -0.04441026 </v>
   <v>      -0.00886708      -0.02282313       0.00300409 </v>
   <v>       0.01403275       0.00422683       0.01202771 </v>
   <v>       0.00301403       0.00426556       0.01942457 </v>
   <v>      -0.01630147       0.00233240       0.00917662 </v>
   <v>       0.01676587      -0.00713875       0.00507107 </v>
   <v>      -0.01796754       0.00395187       0.01606903 </v>
   <v>      -0.01247310       0.00777715       0.00453682 </v>
   <v>      -0.00671666       0.01523650      -0.02307132 </v>
   <v>       0.00768380       0.01410928      -0.01915180 </v>
   <v>      -0.00567376       0.01969144      -0.01502806 </v>
   <v>       0.00522865       0.00278582      -0.01849676 </v>
   <v>      -0.01321045      -0.01628667      -0.00017960 </v>
   <v>       0.00394333       0.00859649      -0.01692376 </v>
   <v>       0.01519131       0.02377095      -0.01708414 </v>
   <v>      -0.00212920       0.00658363      -0.01350905 </v>
   <v>      -0.01601701      -0.01644106       0.00104870 </v>
   <v>      -0.01931817       0.01057510       0.01442962 </v>
   <v>      -0.01335331       0.01111846      -0.01214979 </v>
   <v>       0.00260983      -0.01139825      -0.00539676 </v>
   <v>      -0.01621094      -0.01965075      -0.01584619 </v>
   <v>      -0.00560808       0.01077346       0.02760799 </v>
   <v>      -0.01887411      -0.02349790      -0.02551482 </v>
   <v>       0.01307697       0.00822318      -0.01983241 </v>
   <v>       0.00722685      -0.00954452       0.00600714 </v>
   <v>      -0.00330650      -0.01343127       0.02269755 </v>
   <v>       0.00574920       0.00472348      -0.00396433 </v>
   <v>      -0.00129543      -0.02438702      -0.00981701 </v>
   <v>       0.01496304       0.00111407       0.03882489 </v>
  </varray>
  <varray name="stress" >
   <v>      -0.00863545      -0.07624995       0.04008168 </v>
   <v>      -0.07624980      -0.00424349       0.08484194 </v>
   <v>       0.04008173       0.08484228       0.08583241 </v>
  </varray>
  <energy>
   <i name="e_fr_energy">  -1086.73982676 </i>
   <i name="e_wo_entrp">  -1086.73982676 </i>
   <i name="e_0_energy">     -0.00000000 </i>
  </energy>
  <time name="totalsc"> 1985.57 1988.40</time>
 </calculation>
 <calculation>
  <scstep>
   <time name="dav">  574.19  574.37</time>
   <time name="total">  581.35  581.63</time>
   <energy>
    <i name="alphaZ">   5580.50480996 </i>
    <i name="ewald"> -61101.55448562 </i>
    <i name="hartreedc"> -17368.89946635 </i>
    <i name="XCdc">   3072.76847325 </i>
    <i name="pawpsdc"> 113983.29753081 </i>
    <i name="pawaedc">-113034.17458023 </i>
    <i name="eentropy">     -0.00000000 </i>
    <i name="bandstr">  -7135.49379532 </i>
    <i name="atom">  74916.81196153 </i>
    <i name="e_fr_energy">  -1086.73955197 </i>
    <i name="e_wo_entrp">  -1086.73955197 </i>
    <i name="e_0_energy">  -1086.73955197 </i>
   </energy>
  </scstep>
  <scstep>
   <time name="diag">   65.14   65.21</time>
   <time name="diis">  104.05  104.13</time>
   <time name="orth">   33.60   33.67</time>
   <time name="total">  210.08  210.33</time>
   <energy>
    <i name="e_fr_energy">  -1086.74193580 </i>
    <i name="e_wo_entrp">  -1086.74193580 </i>
    <i name="e_0_energy">  -1086.74193580 </i>
   </energy>
  </scstep>
  <scstep>
   <time name="diag">   65.09   65.13</time>
   <time name="diis">  106.17  106.24</time>
   <time name="orth">   33.59   33.59</time>
   <time name="total">  212.16  212.35</time>
   <energy>
    <i name="e_fr_energy">  -1086.74203006 </i>
    <i name="e_wo_entrp">  -1086.74203006 </i>
    <i name="e_0_energy">  -1086.74203006 </i>
   </energy>
  </scstep>
  <scstep>
   <time name="diag">   65.16   65.16</time>
   <time name="diis">   89.37   89.42</time>
   <time name="orth">   33.63   33.63</time>
   <time name="total">  195.44  195.53</time>
   <energy>
    <i name="e_fr_energy">  -1086.74191450 </i>
    <i name="e_wo_entrp">  -1086.74191450 </i>
    <i name="e_0_energy">  -1086.74191450 </i>
   </energy>
  </scstep>
  <scstep>
   <time name="diag">   65.04   65.08</time>
   <time name="diis">   67.47   67.48</time>
   <time name="orth">   33.63   33.64</time>
   <time name="total">  173.43  173.53</time>
   <energy>
    <i name="e_fr_energy">  -1086.74189027 </i>
    <i name="e_wo_entrp">  -1086.74189027 </i>
    <i name="e_0_energy">  -1086.74189027 </i>
   </energy>
  </scstep>
  <scstep>
   <time name="diag">   65.06   65.07</time>
   <time name="diis">   63.97   63.98</time>
   <time name="orth">   33.68   33.68</time>
   <time name="total">  170.02  170.11</time>
   <energy>
    <i name="e_fr_energy">  -1086.74189355 </i>
    <i name="e_wo_entrp">  -1086.74189355 </i>
    <i name="e_0_energy">  -1086.74189355 </i>
   </energy>
  </scstep>
  <scstep>
   <time name="diag">   65.12   65.12</time>
   <time name="diis">   63.19   63.23</time>
   <time name="orth">   33.59   33.59</time>
   <time name="total">  169.08  169.19</time>
   <energy>
    <i name="e_fr_energy">  -1086.74189419 </i>
    <i name="e_wo_entrp">  -1086.74189419 </i>
    <i name="e_0_energy">  -1086.74189419 </i>
   </energy>
  </scstep>
  <scstep>
   <time name="diag">   65.15   65.16</time>
   <time name="diis">   62.44   62.45</time>
   <time name="orth">   33.65   33.65</time>
   <time name="total">  162.28  162.39</time>
   <energy>
    <i name="alphaZ">   5580.50480996 </i>
    <i name="ewald"> -61101.55448562 </i>
    <i name="hartreedc"> -17369.27615672 </i>
    <i name="XCdc">   3072.79759075 </i>
    <i name="pawpsdc"> 113979.72752087 </i>
    <i name="pawaedc">-113030.59475744 </i>
    <i name="eentropy">     -0.00000000 </i>
    <i name="bandstr">  -7135.15837778 </i>
    <i name="atom">  74916.81196153 </i>
    <i name="e_fr_energy">  -1086.74189444 </i>
    <i name="e_wo_entrp">  -1086.74189444 </i>
    <i name="e_0_energy">  -1086.74189444 </i>
   </energy>
  </scstep>
  <structure>
   <crystal>
    <varray name="basis" >
     <v>      11.22524958       0.03637071       0.02380464 </v>
     <v>       0.03638238      11.26539896       0.00026829 </v>
     <v>       0.03438850       0.00014859      15.97602967 </v>
    </varray>
    <i name="volume">   2020.24906271 </i>
    <varray name="rec_basis" >
     <v>       0.08908622      -0.00028771      -0.00019176 </v>
     <v>      -0.00028762       0.08876831      -0.00000021 </v>
     <v>      -0.00013274      -0.00000106       0.06259406 </v>
    </varray>
   </crystal>
   <varray name="positions" >
    <v>       0.00371957       0.24324912       0.12420252 </v>
    <v>       0.00164368       0.25701092       0.63265305 </v>
    <v>       0.00293744       0.74980300       0.12160879 </v>
    <v>       0.99366281       0.73791333       0.63178012 </v>
    <v>       0.50177342       0.24501496       0.12943362 </v>
    <v>       0.50220099       0.25973130       0.62762710 </v>
    <v>       0.48202106       0.75618019       0.13307304 </v>
    <v>       0.51944148       0.75075372       0.63211371 </v>
    <v>       0.00590360       0.25922594       0.37136525 </v>
    <v>       0.99904409       0.24416195       0.87090247 </v>
    <v>       0.98704953       0.73814660       0.36407816 </v>
    <v>       0.00724405       0.75377678       0.86667929 </v>
    <v>       0.49378613       0.24984131       0.37316562 </v>
    <v>       0.50387353       0.24898392       0.86842119 </v>
    <v>       0.50139668       0.75533548       0.37492296 </v>
    <v>       0.49567394       0.75270428       0.87314216 </v>
    <v>       0.25176777       0.00889305       0.12305092 </v>
    <v>       0.25978517       0.02169145       0.63195981 </v>
    <v>       0.24596663       0.49587757       0.12731076 </v>
    <v>       0.25642483       0.48730801       0.63088836 </v>
    <v>       0.75032508       0.01278861       0.13014157 </v>
    <v>       0.74897807       0.00757320       0.63052728 </v>
    <v>       0.75123192       0.47976668       0.13403797 </v>
    <v>       0.74965981       0.49125679       0.62975955 </v>
    <v>       0.25605980       0.02117905       0.37113987 </v>
    <v>       0.24959794       0.00847363       0.87584865 </v>
    <v>       0.25131718       0.48867256       0.36820275 </v>
    <v>       0.24384914       0.49405820       0.87220698 </v>
    <v>       0.73438464       0.99992924       0.37279178 </v>
    <v>       0.75235219       0.01439685       0.86780343 </v>
    <v>       0.74450510       0.49583892       0.37888251 </v>
    <v>       0.75157789       0.48675254       0.86405490 </v>
    <v>       0.00267882       0.48918484       0.99971645 </v>
    <v>       0.99554646       0.49209752       0.50236029 </v>
    <v>       0.49779848       0.00347590       0.00183772 </v>
    <v>       0.48379090       0.48779833       0.99977545 </v>
    <v>       0.24591827       0.75301393       0.00370725 </v>
    <v>       0.24040484       0.73194966       0.49069806 </v>
    <v>       0.75164522       0.24751827       0.99809702 </v>
    <v>       0.75550958       0.76972603       0.98899672 </v>
    <v>       0.75060892       0.74920073       0.50195620 </v>
    <v>       0.24941767       0.24811758       0.24778306 </v>
    <v>       0.25146248       0.25452173       0.75281003 </v>
    <v>       0.24333025       0.75586866       0.24948870 </v>
    <v>       0.25246855       0.74676184       0.75949664 </v>
    <v>       0.75259377       0.24309611       0.25677147 </v>
    <v>       0.74670130       0.74749886       0.25691540 </v>
    <v>       0.75379796       0.74795375       0.74833802 </v>
    <v>       0.00053358       0.00146494       0.75005374 </v>
    <v>       0.99897225       0.49831729       0.24830731 </v>
    <v>       0.50241750       0.00027830       0.74841318 </v>
    <v>       0.49912670       0.50304998       0.25036320 </v>
    <v>       0.00680908       0.00394041       0.99670416 </v>
    <v>       0.01851715       0.97383559       0.51230853 </v>
    <v>       0.51406551       0.01323211       0.50155984 </v>
    <v>       0.50232618       0.50234723       0.50199272 </v>
    <v>       0.24844237       0.24412837       0.99848033 </v>
    <v>       0.25695705       0.26263628       0.49851104 </v>
    <v>       0.73826478       0.26165927       0.49952166 </v>
    <v>       0.75256097       0.25165435       0.74691602 </v>
    <v>       0.00158388       0.99611691       0.23735207 </v>
    <v>       0.99844582       0.49898097       0.75019444 </v>
    <v>       0.49714593       0.99880596       0.25081855 </v>
    <v>       0.50367637       0.50179529       0.74711155 </v>
    <v>       0.11756560       0.13181644       0.25246226 </v>
    <v>       0.12211958       0.12857613       0.74426919 </v>
    <v>       0.11195614       0.63662338       0.24124541 </v>
    <v>       0.12646863       0.63306523       0.73628754 </v>
    <v>       0.61850975       0.13085189       0.25381658 </v>
    <v>       0.61931461       0.12619841       0.74125455 </v>
    <v>       0.61924868       0.63582612       0.23211766 </v>
    <v>       0.62709607       0.63210536       0.74203417 </v>
    <v>       0.38562096       0.37191306       0.25018651 </v>
    <v>       0.37915340       0.37311623       0.75712348 </v>
    <v>       0.37474135       0.86631127       0.25621665 </v>
    <v>       0.37761004       0.86777716       0.74971287 </v>
    <v>       0.88399874       0.36449594       0.25286736 </v>
    <v>       0.88275613       0.36936782       0.75926834 </v>
    <v>       0.87857132       0.85678461       0.24034574 </v>
    <v>       0.88295269       0.86750340       0.75907258 </v>
    <v>       0.36841389       0.12090653       0.24673973 </v>
    <v>       0.37354084       0.12026122       0.75092660 </v>
    <v>       0.36158266       0.61956462       0.23920241 </v>
    <v>       0.37091562       0.62697192       0.73649947 </v>
    <v>       0.86996332       0.10704569       0.25367775 </v>
    <v>       0.87109706       0.11728792       0.75261331 </v>
    <v>       0.86233057       0.61384100       0.24515508 </v>
    <v>       0.87214662       0.62309903       0.74346259 </v>
    <v>       0.13396676       0.38559472       0.25175900 </v>
    <v>       0.13072752       0.38149156       0.75575846 </v>
    <v>       0.12259370       0.88342822       0.27764914 </v>
    <v>       0.13414088       0.87539084       0.73885532 </v>
    <v>       0.63393941       0.38191078       0.26229819 </v>
    <v>       0.62971001       0.37824544       0.75007910 </v>
    <v>       0.63405091       0.87713150       0.24174898 </v>
    <v>       0.63367324       0.87887355       0.75257169 </v>
    <v>       0.35340391       0.39055608       0.99388600 </v>
    <v>       0.35844738       0.40203066       0.49422530 </v>
    <v>       0.35970080       0.88736518       0.99382997 </v>
    <v>       0.85670506       0.39245279       0.99594461 </v>
    <v>       0.86323753       0.38613640       0.49162819 </v>
    <v>       0.85930122       0.89369827       0.99844265 </v>
    <v>       0.88533580       0.89188310       0.47068594 </v>
    <v>       0.14417362       0.10886313       0.00189352 </v>
    <v>       0.08536497       0.10591679       0.46757212 </v>
    <v>       0.13013828       0.61505168       0.01105767 </v>
    <v>       0.13965707       0.61155441       0.51932953 </v>
    <v>       0.64304573       0.10259036       0.00357082 </v>
    <v>       0.65034454       0.11071930       0.50422998 </v>
    <v>       0.64477086       0.61613988       0.50765704 </v>
    <v>       0.10691799       0.36113427       0.99122169 </v>
    <v>       0.11034583       0.36244225       0.49762004 </v>
    <v>       0.11058967       0.85538510       0.98986285 </v>
    <v>       0.16551240       0.87461863       0.52601330 </v>
    <v>       0.60979150       0.36369335       0.99831527 </v>
    <v>       0.60619143       0.36353393       0.48776617 </v>
    <v>       0.60544261       0.83387597       0.01319346 </v>
    <v>       0.61902779       0.86300701       0.49672831 </v>
    <v>       0.39522823       0.13929503       0.00002969 </v>
    <v>       0.37328562       0.12432697       0.50188884 </v>
    <v>       0.38765407       0.63927463       0.01078414 </v>
    <v>       0.39148345       0.68497724       0.51958319 </v>
    <v>       0.89102942       0.14327436       0.00108253 </v>
    <v>       0.82561393       0.64672834       0.04682073 </v>
    <v>       0.89232116       0.64190176       0.49947266 </v>
    <v>       0.01094615       0.98930674       0.12143819 </v>
    <v>       0.98258766       0.00392458       0.62414990 </v>
    <v>       0.99814815       0.48675210       0.12433832 </v>
    <v>       0.99040350       0.48956885       0.62364542 </v>
    <v>       0.49502788       0.99617467       0.12380790 </v>
    <v>       0.49014918       0.98351413       0.62293559 </v>
    <v>       0.51040270       0.49490398       0.12179181 </v>
    <v>       0.49974440       0.49132712       0.62286648 </v>
    <v>       0.00926892       0.00229317       0.87184199 </v>
    <v>       0.00661879       0.51066651       0.37379634 </v>
    <v>       0.99417192       0.52720780       0.88092831 </v>
    <v>       0.49275268       0.99088142       0.37929634 </v>
    <v>       0.50889326       0.99600701       0.87564759 </v>
    <v>       0.49686570       0.52835920       0.37225670 </v>
    <v>       0.51167183       0.52349761       0.88191721 </v>
    <v>       0.25516449       0.25209180       0.37259274 </v>
    <v>       0.24919833       0.24198908       0.87390022 </v>
    <v>       0.24896834       0.72965653       0.37612071 </v>
    <v>       0.25001279       0.73232355       0.87573766 </v>
    <v>       0.76787339       0.23136079       0.37894864 </v>
    <v>       0.74324462       0.24197492       0.87707302 </v>
    <v>       0.74317157       0.73946422       0.37291544 </v>
    <v>       0.74821947       0.72850846       0.87644159 </v>
    <v>       0.24780431       0.25712350       0.12467184 </v>
    <v>       0.24981954       0.25367993       0.62502261 </v>
    <v>       0.23928890       0.77519715       0.12723935 </v>
    <v>       0.74932347       0.24808161       0.12852659 </v>
    <v>       0.76812520       0.25070281       0.61963419 </v>
    <v>       0.76392056       0.77034075       0.62277050 </v>
   </varray>
  </structure>
  <varray name="forces" >
   <v>      -0.00580045       0.00469296      -0.01451378 </v>
   <v>      -0.00196681      -0.00321639       0.00179279 </v>
   <v>      -0.00043368      -0.00030376      -0.00643973 </v>
   <v>      -0.00529275      -0.01575228       0.00589013 </v>
   <v>       0.00846047      -0.00451981      -0.00421619 </v>
   <v>       0.00989907       0.00152436      -0.00307165 </v>
   <v>      -0.00456759       0.01288794       0.02067617 </v>
   <v>       0.00764376      -0.00909824       0.01239743 </v>
   <v>       0.01020175      -0.00085806       0.00461321 </v>
   <v>      -0.00310154       0.00352575      -0.00709269 </v>
   <v>      -0.00085572      -0.00317450       0.00642468 </v>
   <v>      -0.00565315      -0.03346783       0.00538093 </v>
   <v>       0.00915769      -0.00435306      -0.00308048 </v>
   <v>      -0.00154724       0.00774682       0.01227963 </v>
   <v>       0.01304952      -0.01962239      -0.00928840 </v>
   <v>       0.00037805      -0.01017321      -0.00529205 </v>
   <v>      -0.00871008       0.01232281      -0.00375217 </v>
   <v>      -0.00395697       0.00681982       0.00056399 </v>
   <v>       0.00655090      -0.00059472      -0.00687076 </v>
   <v>       0.00196025       0.00471886      -0.00286364 </v>
   <v>      -0.00456248       0.00338939       0.00617050 </v>
   <v>      -0.00358525       0.00862407      -0.00983981 </v>
   <v>      -0.00263268      -0.01232937      -0.00333010 </v>
   <v>       0.00433414      -0.00098919      -0.00695726 </v>
   <v>       0.00205440      -0.00848551      -0.00346376 </v>
   <v>       0.00164887       0.00773252       0.00419823 </v>
   <v>      -0.00478667      -0.02284396       0.00134363 </v>
   <v>      -0.01593915      -0.00686988      -0.00005838 </v>
   <v>      -0.00362567       0.00734969       0.01000407 </v>
   <v>      -0.00761801       0.01884323      -0.00074426 </v>
   <v>       0.00442621      -0.00061587      -0.00266895 </v>
   <v>      -0.00030618      -0.01428403       0.00868586 </v>
   <v>      -0.00601768       0.02208525      -0.01959500 </v>
   <v>       0.00021528       0.02259502       0.00460343 </v>
   <v>       0.00929709      -0.00199628       0.00047109 </v>
   <v>       0.01210302       0.00400597      -0.02781076 </v>
   <v>      -0.01607121      -0.01353628      -0.00121261 </v>
   <v>      -0.02376238       0.00719586       0.08229929 </v>
   <v>      -0.01111799      -0.00793073       0.00673113 </v>
   <v>      -0.05262731      -0.09492776      -0.03680186 </v>
   <v>       0.02088879       0.00036771       0.01234381 </v>
   <v>       0.01126662      -0.00812159      -0.01934758 </v>
   <v>       0.00351845       0.00078006       0.00275118 </v>
   <v>      -0.00865555       0.01120532      -0.00755571 </v>
   <v>       0.04682307      -0.00847653      -0.02683705 </v>
   <v>      -0.01323963       0.01584421      -0.00185242 </v>
   <v>      -0.00004575      -0.00021519       0.03121310 </v>
   <v>      -0.01022888      -0.01162699       0.01073100 </v>
   <v>      -0.01244880       0.00116069      -0.03854751 </v>
   <v>      -0.02252428       0.02093847       0.01172556 </v>
   <v>       0.00621371      -0.01424341       0.00618142 </v>
   <v>       0.03148765      -0.00572698       0.00003371 </v>
   <v>       0.01061058      -0.00768689      -0.00368838 </v>
   <v>      -0.00275134       0.00564658       0.00260174 </v>
   <v>       0.00871267       0.00297356      -0.00013702 </v>
   <v>      -0.00187457      -0.00174918       0.00499703 </v>
   <v>       0.00645380      -0.00573729      -0.00704121 </v>
   <v>      -0.00749302      -0.00607780       0.01144561 </v>
   <v>       0.00257522       0.00753299       0.00563103 </v>
   <v>       0.00405414      -0.00882828       0.00263556 </v>
   <v>       0.00096234       0.00806939      -0.02539991 </v>
   <v>      -0.00365074       0.00094196       0.00829250 </v>
   <v>      -0.00090577       0.00947530       0.00105261 </v>
   <v>      -0.00153170       0.01386347       0.00060248 </v>
   <v>       0.01306432       0.00135049       0.00845229 </v>
   <v>       0.00446995      -0.00408159      -0.00398073 </v>
   <v>       0.00665765      -0.00718245      -0.00948774 </v>
   <v>       0.00648902      -0.01370571       0.00589032 </v>
   <v>       0.00570985      -0.00631692       0.00141965 </v>
   <v>       0.00529280      -0.01210931      -0.00813139 </v>
   <v>      -0.00022308      -0.00671688       0.00471823 </v>
   <v>       0.00420316      -0.00363921      -0.00856701 </v>
   <v>      -0.01160795       0.00180366       0.00575927 </v>
   <v>      -0.01143727       0.00298589      -0.00179687 </v>
   <v>      -0.01724510       0.00157997      -0.00657348 </v>
   <v>      -0.00440512       0.01514675       0.00980263 </v>
   <v>       0.00176416       0.00719442       0.00759587 </v>
   <v>      -0.00272947       0.00101522       0.00939839 </v>
[...]
       <r>   -16.6260     0.0000    32.0000 </r>
       <r>   -16.4733     0.0000    32.0000 </r>
       <r>   -16.3206     0.0000    32.0000 </r>
       <r>   -16.1679     0.0000    32.0000 </r>
       <r>   -16.0152     0.0000    32.0000 </r>
       <r>   -15.8624     0.0000    32.0000 </r>
       <r>   -15.7097     0.0000    32.0000 </r>
       <r>   -15.5570     0.0000    32.0000 </r>
       <r>   -15.4043     0.0091    32.0014 </r>
       <r>   -15.2516     7.0553    33.0789 </r>
       <r>   -15.0988    22.2812    36.4817 </r>
       <r>   -14.9461    35.7646    41.9437 </r>
       <r>   -14.7934    44.1664    48.6889 </r>
       <r>   -14.6407    46.2799    55.7568 </r>
       <r>   -14.4879    39.1631    61.7378 </r>
       <r>   -14.3352    42.6230    68.2473 </r>
       <r>   -14.1825    65.4864    78.2484 </r>
       <r>   -14.0298    84.2119    91.1094 </r>
       <r>   -13.8771    93.2857   105.3561 </r>
       <r>   -13.7243    65.4496   115.3516 </r>
       <r>   -13.5716    27.5933   119.5657 </r>
       <r>   -13.4189    15.1773   121.8836 </r>
       <r>   -13.2662     0.7624   122.0000 </r>
       <r>   -13.1135     0.0000   122.0000 </r>
       <r>   -12.9607     0.0002   122.0000 </r>
       <r>   -12.8080     5.0868   122.7769 </r>
       <r>   -12.6553    52.3000   130.7642 </r>
       <r>   -12.5026   128.6776   150.4160 </r>
       <r>   -12.3499   138.4668   171.5628 </r>
       <r>   -12.1971   108.4817   188.1303 </r>
       <r>   -12.0444    97.7381   203.0570 </r>
       <r>   -11.8917    70.7454   213.8613 </r>
       <r>   -11.7390    26.8523   217.9622 </r>
       <r>   -11.5862     0.2476   218.0000 </r>
       <r>   -11.4335     0.0000   218.0000 </r>
       <r>   -11.2808     0.0000   218.0000 </r>
       <r>   -11.1281     0.0000   218.0000 </r>
       <r>   -10.9754     0.0000   218.0000 </r>
       <r>   -10.8226     0.0000   218.0000 </r>
       <r>   -10.6699     0.0000   218.0000 </r>
       <r>   -10.5172     0.0000   218.0000 </r>
       <r>   -10.3645     0.0000   218.0000 </r>
       <r>   -10.2118     0.0000   218.0000 </r>
       <r>   -10.0590     0.0000   218.0000 </r>
       <r>    -9.9063     0.0000   218.0000 </r>
       <r>    -9.7536     0.0000   218.0000 </r>
       <r>    -9.6009     0.0000   218.0000 </r>
       <r>    -9.4482     0.0000   218.0000 </r>
       <r>    -9.2954     0.0000   218.0000 </r>
       <r>    -9.1427     0.0000   218.0000 </r>
       <r>    -8.9900     0.0000   218.0000 </r>
       <r>    -8.8373     0.0000   218.0000 </r>
       <r>    -8.6845     0.0000   218.0000 </r>
       <r>    -8.5318     0.0000   218.0000 </r>
       <r>    -8.3791     0.0000   218.0000 </r>
       <r>    -8.2264     0.0000   218.0000 </r>
       <r>    -8.0737     0.0000   218.0000 </r>
       <r>    -7.9209     0.0000   218.0000 </r>
       <r>    -7.7682     0.0000   218.0000 </r>
       <r>    -7.6155     0.0000   218.0000 </r>
       <r>    -7.4628     0.0000   218.0000 </r>
       <r>    -7.3101     0.0000   218.0000 </r>
       <r>    -7.1573     0.0000   218.0000 </r>
       <r>    -7.0046     0.0000   218.0000 </r>
       <r>    -6.8519     0.0000   218.0000 </r>
       <r>    -6.6992     0.0000   218.0000 </r>
       <r>    -6.5464     0.0000   218.0000 </r>
       <r>    -6.3937     0.0000   218.0000 </r>
       <r>    -6.2410     0.0000   218.0000 </r>
       <r>    -6.0883     0.0000   218.0000 </r>
       <r>    -5.9356     0.0000   218.0000 </r>
       <r>    -5.7828     0.0000   218.0000 </r>
       <r>    -5.6301     0.0000   218.0000 </r>
       <r>    -5.4774     0.0000   218.0000 </r>
       <r>    -5.3247     0.0000   218.0000 </r>
       <r>    -5.1720     0.0000   218.0000 </r>
       <r>    -5.0192     0.0000   218.0000 </r>
       <r>    -4.8665     0.0000   218.0000 </r>
       <r>    -4.7138     0.0087   218.0013 </r>
       <r>    -4.5611     5.9250   218.9062 </r>
       <r>    -4.4084     5.8267   219.7961 </r>
       <r>    -4.2556    10.5653   221.4096 </r>
       <r>    -4.1029    10.4064   222.9989 </r>
       <r>    -3.9502     0.0073   223.0000 </r>
       <r>    -3.7975     0.0000   223.0000 </r>
       <r>    -3.6447     0.0000   223.0000 </r>
       <r>    -3.4920     0.0000   223.0000 </r>
       <r>    -3.3393     0.0000   223.0000 </r>
       <r>    -3.1866     0.0000   223.0000 </r>
       <r>    -3.0339     0.0000   223.0000 </r>
       <r>    -2.8811     0.0000   223.0000 </r>
       <r>    -2.7284     0.0000   223.0000 </r>
       <r>    -2.5757     0.0007   223.0001 </r>
       <r>    -2.4230     5.3164   223.8120 </r>
       <r>    -2.2703    15.5769   226.1910 </r>
       <r>    -2.1175    24.4565   229.9260 </r>
       <r>    -1.9648    26.1890   233.9256 </r>
       <r>    -1.8121    29.3255   238.4042 </r>
       <r>    -1.6594    41.9215   244.8065 </r>
       <r>    -1.5066    49.8319   252.4169 </r>
       <r>    -1.3539    56.0827   260.9819 </r>
       <r>    -1.2012    66.6379   271.1590 </r>
       <r>    -1.0485    68.9575   281.6902 </r>
       <r>    -0.8958    77.8182   293.5747 </r>
       <r>    -0.7430    86.5878   306.7985 </r>
       <r>    -0.5903    99.0763   321.9296 </r>
       <r>    -0.4376    97.4141   336.8067 </r>
       <r>    -0.2849    76.3178   348.4621 </r>
       <r>    -0.1322    60.5115   357.7035 </r>
       <r>     0.0206    47.5956   364.9723 </r>
       <r>     0.1733    49.6444   372.5541 </r>
       <r>     0.3260    52.5795   380.5841 </r>
       <r>     0.4787    57.3491   389.3425 </r>
       <r>     0.6314    51.7629   397.2478 </r>
       <r>     0.7842    52.3727   405.2462 </r>
       <r>     0.9369    54.4518   413.5622 </r>
       <r>     1.0896    64.5178   423.4154 </r>
       <r>     1.2423    73.5768   434.6521 </r>
       <r>     1.3951    79.6745   446.8201 </r>
       <r>     1.5478    79.0437   458.8918 </r>
       <r>     1.7005    74.3365   470.2445 </r>
       <r>     1.8532    52.7626   478.3025 </r>
       <r>     2.0059    50.1675   485.9641 </r>
       <r>     2.1587    23.9289   489.6186 </r>
       <r>     2.3114    21.8888   492.9615 </r>
       <r>     2.4641     0.2523   493.0000 </r>
       <r>     2.6168     0.0000   493.0000 </r>
       <r>     2.7695     0.0000   493.0000 </r>
       <r>     2.9223     0.0000   493.0000 </r>
       <r>     3.0750     0.0000   493.0000 </r>
       <r>     3.2277     0.0000   493.0000 </r>
       <r>     3.3804     0.0000   493.0000 </r>
       <r>     3.5331     0.0000   493.0000 </r>
       <r>     3.6859     0.0000   493.0000 </r>
       <r>     3.8386     0.0000   493.0000 </r>
       <r>     3.9913     0.0000   493.0000 </r>
       <r>     4.1440     0.0000   493.0000 </r>
       <r>     4.2968     0.0001   493.0000 </r>
       <r>     4.4495     3.9845   493.6085 </r>
       <r>     4.6022    37.8444   499.3882 </r>
       <r>     4.7549    47.4409   506.6334 </r>
       <r>     4.9076    30.5125   511.2933 </r>
       <r>     5.0604    41.9836   517.7051 </r>
       <r>     5.2131    72.2124   528.7335 </r>
       <r>     5.3658    70.3533   539.4779 </r>
       <r>     5.5185    65.4844   549.4788 </r>
       <r>     5.6712    66.8638   559.6903 </r>
       <r>     5.8240    73.3988   570.8998 </r>
       <r>     5.9767    82.1736   583.4495 </r>
       <r>     6.1294    73.5599   594.6836 </r>
       <r>     6.2821    64.7152   604.5670 </r>
       <r>     6.4349    37.0790   610.2297 </r>
       <r>     6.5876    28.8402   614.6343 </r>
       <r>     6.7403    15.2264   616.9597 </r>
       <r>     6.8930    19.4297   619.9270 </r>
       <r>     7.0457    19.5579   622.9139 </r>
       <r>     7.1985    15.3347   625.2558 </r>
       <r>     7.3512    19.0704   628.1683 </r>
       <r>     7.5039    13.6353   630.2507 </r>
       <r>     7.6566    15.6726   632.6442 </r>
       <r>     7.8093    20.2351   635.7345 </r>
       <r>     7.9621    21.9758   639.0907 </r>
       <r>     8.1148    24.5167   642.8349 </r>
       <r>     8.2675    24.8957   646.6370 </r>
       <r>     8.4202    19.9886   649.6897 </r>
       <r>     8.5729    22.0614   653.0590 </r>
       <r>     8.7257    30.4756   657.7132 </r>
       <r>     8.8784    30.2653   662.3354 </r>
       <r>     9.0311    37.2443   668.0234 </r>
       <r>     9.1838    38.8083   673.9502 </r>
       <r>     9.3366    38.3777   679.8113 </r>
       <r>     9.4893    41.8767   686.2068 </r>
       <r>     9.6420    49.5390   693.7724 </r>
       <r>     9.7947    57.5914   702.5678 </r>
       <r>     9.9474    63.3577   712.2439 </r>
       <r>    10.1002    63.2634   721.9056 </r>
       <r>    10.2529    50.7721   729.6596 </r>
       <r>    10.4056    56.0003   738.2120 </r>
       <r>    10.5583    56.8803   746.8988 </r>
       <r>    10.7110    60.0693   756.0727 </r>
       <r>    10.8638    56.6656   764.7267 </r>
       <r>    11.0165    21.4194   767.9979 </r>
       <r>    11.1692     0.0137   768.0000 </r>
       <r>    11.3219     0.0000   768.0000 </r>
       <r>    11.4746     0.0000   768.0000 </r>
       <r>    11.6274     0.0000   768.0000 </r>
       <r>    11.7801     0.0000   768.0000 </r>
       <r>    11.9328     0.0000   768.0000 </r>
       <r>    12.0855     0.0000   768.0000 </r>
       <r>    12.2383     0.0000   768.0000 </r>
       <r>    12.3910     0.0000   768.0000 </r>
       <r>    12.5437     0.0000   768.0000 </r>
       <r>    12.6964     0.0000   768.0000 </r>
       <r>    12.8491     0.0000   768.0000 </r>
       <r>    13.0019     0.0000   768.0000 </r>
      </set>
     </set>
    </array>
   </total>
  </dos>
 </calculation>
 <structure name="finalpos" >
  <crystal>
   <varray name="basis" >
    <v>      11.22547144       0.03606077       0.02278545 </v>
    <v>       0.03607184      11.26574970      -0.00021674 </v>
    <v>       0.03294079      -0.00053557      15.97592907 </v>
   </varray>
   <i name="volume">   2020.34029318 </i>
   <varray name="rec_basis" >
    <v>       0.08908441      -0.00028524      -0.00018369 </v>
    <v>      -0.00028516       0.08876553       0.00000356 </v>
    <v>      -0.00012706       0.00000161       0.06259443 </v>
   </varray>
  </crystal>
  <varray name="positions" >
   <v>       0.00368390       0.24350931       0.12378916 </v>
   <v>       0.00158657       0.25695641       0.63275334 </v>
   <v>       0.00282957       0.74997926       0.12151684 </v>
   <v>       0.99375211       0.73739868       0.63199346 </v>
   <v>       0.50193342       0.24488023       0.12933866 </v>
   <v>       0.50255554       0.25967922       0.62758884 </v>
   <v>       0.48179123       0.75669744       0.13340940 </v>
   <v>       0.51961828       0.75048469       0.63205966 </v>
   <v>       0.00636543       0.25930390       0.37130621 </v>
   <v>       0.99900158       0.24401235       0.87070587 </v>
   <v>       0.98721181       0.73817524       0.36405509 </v>
   <v>       0.00721867       0.75299656       0.86681609 </v>
   <v>       0.49393390       0.24958671       0.37306541 </v>
   <v>       0.50369694       0.24920491       0.86863299 </v>
   <v>       0.50165513       0.75488441       0.37472399 </v>
   <v>       0.49541585       0.75246483       0.87318799 </v>
   <v>       0.25160847       0.00907421       0.12310228 </v>
   <v>       0.25988638       0.02180482       0.63206883 </v>
   <v>       0.24624170       0.49600372       0.12729649 </v>
   <v>       0.25650192       0.48727687       0.63088335 </v>
   <v>       0.75035544       0.01255377       0.13037453 </v>
   <v>       0.74872785       0.00770464       0.63028011 </v>
   <v>       0.75109885       0.47960313       0.13397654 </v>
   <v>       0.74981698       0.49125903       0.62962563 </v>
   <v>       0.25618902       0.02097662       0.37096017 </v>
   <v>       0.24963649       0.00849590       0.87598468 </v>
   <v>       0.25123254       0.48828703       0.36817772 </v>
   <v>       0.24302303       0.49373361       0.87223933 </v>
   <v>       0.73427256       0.00015548       0.37298175 </v>
   <v>       0.75235866       0.01483010       0.86787876 </v>
   <v>       0.74471939       0.49588069       0.37880554 </v>
   <v>       0.75141080       0.48617331       0.86425372 </v>
   <v>       0.00249121       0.48928375       0.99980537 </v>
   <v>       0.99578734       0.49222617       0.50240332 </v>
   <v>       0.49788076       0.00307203       0.00189652 </v>
   <v>       0.48380097       0.48782477       0.99969003 </v>
   <v>       0.24587208       0.75304327       0.00374346 </v>
   <v>       0.24029788       0.73224423       0.49081443 </v>
   <v>       0.75164705       0.24727153       0.99829421 </v>
   <v>       0.75514288       0.76944345       0.98874629 </v>
   <v>       0.75092010       0.74939290       0.50199574 </v>
   <v>       0.24948275       0.24826428       0.24769880 </v>
   <v>       0.25157179       0.25431376       0.75280569 </v>
   <v>       0.24319723       0.75586677       0.24950528 </v>
   <v>       0.25254122       0.74684272       0.75958000 </v>
   <v>       0.75273518       0.24308151       0.25687246 </v>
   <v>       0.74660653       0.74769802       0.25694761 </v>
   <v>       0.75374821       0.74779984       0.74841815 </v>
   <v>       0.00043696       0.00120063       0.74994924 </v>
   <v>       0.99887683       0.49845049       0.24833367 </v>
   <v>       0.50256761       0.00004541       0.74853378 </v>
   <v>       0.49923177       0.50300092       0.25039672 </v>
   <v>       0.00681753       0.00371933       0.99646572 </v>
   <v>       0.01852366       0.97376134       0.51232346 </v>
   <v>       0.51430679       0.01331634       0.50163232 </v>
   <v>       0.50227507       0.50243247       0.50182334 </v>
   <v>       0.24864927       0.24397374       0.99847791 </v>
   <v>       0.25702061       0.26254683       0.49848262 </v>
   <v>       0.73856946       0.26178118       0.49948487 </v>
   <v>       0.75250596       0.25140311       0.74696281 </v>
   <v>       0.00166136       0.99649160       0.23712645 </v>
   <v>       0.99841297       0.49878075       0.75027296 </v>
   <v>       0.49698985       0.99895719       0.25091556 </v>
   <v>       0.50371559       0.50188245       0.74707256 </v>
   <v>       0.11791738       0.13167111       0.25247255 </v>
   <v>       0.12243685       0.12821388       0.74394412 </v>
   <v>       0.11212367       0.63635746       0.24095235 </v>
   <v>       0.12703864       0.63251147       0.73650366 </v>
   <v>       0.61882059       0.13063966       0.25375557 </v>
   <v>       0.61980949       0.12562504       0.74112010 </v>
   <v>       0.61937663       0.63546221       0.23225166 </v>
   <v>       0.62745118       0.63170694       0.74167589 </v>
   <v>       0.38528133       0.37213069       0.25032224 </v>
   <v>       0.37859388       0.37357833       0.75715575 </v>
   <v>       0.37421808       0.86666164       0.25621009 </v>
   <v>       0.37728811       0.86826822       0.75002796 </v>
   <v>       0.88363012       0.36486057       0.25310240 </v>
   <v>       0.88240787       0.36951265       0.75948849 </v>
   <v>       0.87812645       0.85690322       0.23972891 </v>
   <v>       0.88261157       0.86768835       0.75962793 </v>
   <v>       0.36845016       0.12112476       0.24678632 </v>
   <v>       0.37414274       0.12070666       0.75111867 </v>
   <v>       0.36181775       0.61994628       0.23959585 </v>
   <v>       0.37152144       0.62757729       0.73688524 </v>
   <v>       0.87024995       0.10731142       0.25385878 </v>
   <v>       0.87165972       0.11772339       0.75259168 </v>
   <v>       0.86236320       0.61381484       0.24550703 </v>
   <v>       0.87266984       0.62344129       0.74337952 </v>
   <v>       0.13357083       0.38523323       0.25150768 </v>
   <v>       0.13030093       0.38087099       0.75593814 </v>
   <v>       0.12217069       0.88325762       0.27716399 </v>
   <v>       0.13401191       0.87518324       0.73850650 </v>
   <v>       0.63357450       0.38139174       0.26213264 </v>
   <v>       0.62942996       0.37788672       0.75004035 </v>
   <v>       0.63333658       0.87675728       0.24169696 </v>
   <v>       0.63330434       0.87825673       0.75261485 </v>
   <v>       0.35348412       0.39045799       0.99354130 </v>
   <v>       0.35819044       0.40234467       0.49414865 </v>
   <v>       0.35980755       0.88723106       0.99396234 </v>
   <v>       0.85645364       0.39252396       0.99601299 </v>
   <v>       0.86387474       0.38568726       0.49159939 </v>
   <v>       0.85937713       0.89359702       0.99761521 </v>
   <v>       0.88569324       0.89160849       0.47044453 </v>
   <v>       0.14417073       0.10882103       0.00214443 </v>
   <v>       0.08550310       0.10573876       0.46737019 </v>
   <v>       0.12961326       0.61543348       0.01089044 </v>
   <v>       0.13961171       0.61190064       0.51962092 </v>
   <v>       0.64305368       0.10242809       0.00393056 </v>
   <v>       0.65063858       0.11080910       0.50436277 </v>
   <v>       0.64478754       0.61649998       0.50762699 </v>
   <v>       0.10659202       0.36108415       0.99119645 </v>
   <v>       0.11064101       0.36261446       0.49768909 </v>
   <v>       0.11068846       0.85579040       0.98979854 </v>
   <v>       0.16555470       0.87472613       0.52633043 </v>
   <v>       0.60967593       0.36369869       0.99852007 </v>
   <v>       0.60654528       0.36379190       0.48757540 </v>
   <v>       0.60546444       0.83438585       0.01330366 </v>
   <v>       0.61983254       0.86376300       0.49692220 </v>
   <v>       0.39540953       0.13918204      -0.00005510 </v>
   <v>       0.37371441       0.12451951       0.50176002 </v>
   <v>       0.38743033       0.63937515       0.01051650 </v>
   <v>       0.39170321       0.68538628       0.51910579 </v>
   <v>       0.89088895       0.14306047       0.00081071 </v>
   <v>       0.82508348       0.64725429       0.04735038 </v>
   <v>       0.89213051       0.64146024       0.49924575 </v>
   <v>       0.01037780       0.98945394       0.12127006 </v>
   <v>       0.98222232       0.00345877       0.62415235 </v>
   <v>       0.99815504       0.48689482       0.12431949 </v>
   <v>       0.99045955       0.48969201       0.62369781 </v>
   <v>       0.49440369       0.99618647       0.12393611 </v>
   <v>       0.49059184       0.98332317       0.62300521 </v>
   <v>       0.50957312       0.49512528       0.12181693 </v>
   <v>       0.49951790       0.49149220       0.62271461 </v>
   <v>       0.00948984       0.00274158       0.87178483 </v>
   <v>       0.00717446       0.51087267       0.37382676 </v>
   <v>       0.99392470       0.52739430       0.88105032 </v>
   <v>       0.49309314       0.99103312       0.37927374 </v>
   <v>       0.50889834       0.99569641       0.87576223 </v>
   <v>       0.49700832       0.52842152       0.37228384 </v>
   <v>       0.51235183       0.52385568       0.88212543 </v>
   <v>       0.25517100       0.25239336       0.37261562 </v>
   <v>       0.24881815       0.24176869       0.87392968 </v>
   <v>       0.24785434       0.73025930       0.37613405 </v>
   <v>       0.24946549       0.73279171       0.87587980 </v>
   <v>       0.76791479       0.23115907       0.37899317 </v>
   <v>       0.74262305       0.24174902       0.87722804 </v>
   <v>       0.74295468       0.73998232       0.37285266 </v>
   <v>       0.74768999       0.72733005       0.87648752 </v>
   <v>       0.24830518       0.25753141       0.12459403 </v>
   <v>       0.25001199       0.25355932       0.62492919 </v>
   <v>       0.23930521       0.77501177       0.12715094 </v>
   <v>       0.74988557       0.24807027       0.12851731 </v>
   <v>       0.76838621       0.25042523       0.61964538 </v>
   <v>       0.76443734       0.77043764       0.62271469 </v>
  </varray>
 </structure>
</modeling>
