       N       E                     dE             d eps       ncg     rms          rms(c)
DAV:   1    -0.996004403461E+03   -0.99600E+03   -0.32328E-01 12688   0.133E+00    0.453E-02
RMM:   2    -0.996004412110E+03   -0.86487E-05   -0.56881E-05  7007   0.165E-02    0.348E-02
RMM:   3    -0.996004417844E+03   -0.57345E-05   -0.12870E-05  6766   0.847E-03    0.238E-02
RMM:   4    -0.996004430116E+03   -0.12272E-04   -0.83817E-06  6746   0.629E-03    0.110E-02
RMM:   5    -0.996004430894E+03   -0.77857E-06   -0.16483E-06  5442   0.324E-03    0.793E-03
RMM:   6    -0.996004431045E+03   -0.15093E-06   -0.37180E-07  2555   0.185E-03    0.416E-03
RMM:   7    -0.996004431096E+03   -0.50422E-07   -0.53477E-08  1890   0.153E-03    0.286E-03
RMM:   8    -0.996004431112E+03   -0.15876E-07   -0.75924E-09  1731   0.151E-03
   1 F= -.99600443E+03 E0= -.99600443E+03  d E =-.996004E+03  mag=   120.0000
       N       E                     dE             d eps       ncg     rms          rms(c)
DAV:   1    -0.995993662402E+03    0.10769E-01   -0.85317E+00 12320   0.346E+00    0.171E+00
RMM:   2    -0.996022956795E+03   -0.29294E-01   -0.27096E-01 12625   0.762E-01    0.125E+00
RMM:   3    -0.996025330700E+03   -0.23739E-02   -0.16332E-02 13374   0.201E-01    0.678E-01
RMM:   4    -0.996022928151E+03    0.24025E-02   -0.37779E-03 13137   0.776E-02    0.411E-01
RMM:   5    -0.996021981292E+03    0.94686E-03   -0.32126E-03 12511   0.654E-02    0.128E-01
RMM:   6    -0.996021964222E+03    0.17071E-04   -0.23817E-04  8651   0.261E-02    0.953E-02
RMM:   7    -0.996021965833E+03   -0.16112E-05   -0.75713E-05  7687   0.117E-02    0.726E-02
RMM:   8    -0.996021966222E+03   -0.38912E-06   -0.43101E-05  7434   0.916E-03
   2 F= -.99602197E+03 E0= -.99602197E+03  d E =-.175351E-01  mag=   120.0000
       N       E                     dE             d eps       ncg     rms          rms(c)
DAV:   1    -0.996022047192E+03   -0.81359E-04   -0.38764E-01 13256   0.738E-01    0.369E-01
RMM:   2    -0.996023382050E+03   -0.13349E-02   -0.12282E-02 12613   0.162E-01    0.267E-01
RMM:   3    -0.996023482202E+03   -0.10015E-03   -0.63813E-04 10615   0.428E-02    0.144E-01
RMM:   4    -0.996023378786E+03    0.10342E-03   -0.13863E-04  7702   0.181E-02    0.897E-02
RMM:   5    -0.996023337793E+03    0.40992E-04   -0.15828E-04  7510   0.152E-02    0.355E-02
RMM:   6    -0.996023339291E+03   -0.14978E-05   -0.24403E-05  6995   0.923E-03    0.289E-02
RMM:   7    -0.996023339834E+03   -0.54274E-06   -0.85110E-06  6065   0.379E-03    0.185E-02
RMM:   8    -0.996023339958E+03   -0.12410E-06   -0.36038E-06  5431   0.355E-03
   3 F= -.99602334E+03 E0= -.99602334E+03  d E =-.189088E-01  mag=   120.0000
       N       E                     dE             d eps       ncg     rms          rms(c)
DAV:   1    -0.996023369780E+03   -0.29946E-04   -0.65324E+00 12320   0.309E+00    0.113E+00
RMM:   2    -0.996041946993E+03   -0.18577E-01   -0.17977E-01 12585   0.609E-01    0.694E-01
RMM:   3    -0.996043013820E+03   -0.10668E-02   -0.11050E-02 13432   0.170E-01    0.407E-01
RMM:   4    -0.996041970277E+03    0.10435E-02   -0.22123E-03 13903   0.566E-02    0.210E-01
RMM:   5    -0.996041720611E+03    0.24967E-03   -0.96667E-04 12489   0.350E-02    0.642E-02
RMM:   6    -0.996041724111E+03   -0.35006E-05   -0.79563E-05  7549   0.153E-02    0.487E-02
RMM:   7    -0.996041729295E+03   -0.51833E-05   -0.40139E-05  7375   0.887E-03    0.334E-02
RMM:   8    -0.996041731764E+03   -0.24690E-05   -0.22284E-05  7290   0.676E-03
   4 F= -.99604173E+03 E0= -.99604173E+03  d E =-.183918E-01  mag=   120.0000
       N       E                     dE             d eps       ncg     rms          rms(c)
DAV:   1    -0.996021780272E+03    0.19949E-01   -0.10064E+01 12288   0.383E+00    0.140E+00
RMM:   2    -0.996050504329E+03   -0.28724E-01   -0.27807E-01 12590   0.756E-01    0.857E-01
RMM:   3    -0.996052141365E+03   -0.16370E-02   -0.17309E-02 13631   0.211E-01    0.505E-01
RMM:   4    -0.996050519442E+03    0.16219E-02   -0.34544E-03 14418   0.701E-02    0.259E-01
RMM:   5    -0.996050148354E+03    0.37109E-03   -0.15163E-03 13153   0.426E-02    0.809E-02
RMM:   6    -0.996050152429E+03   -0.40754E-05   -0.13487E-04  8160   0.182E-02    0.593E-02
RMM:   7    -0.996050160042E+03   -0.76129E-05   -0.63021E-05  7489   0.109E-02    0.408E-02
RMM:   8    -0.996050163973E+03   -0.39310E-05   -0.37331E-05  7369   0.853E-03
   5 F= -.99605016E+03 E0= -.99605016E+03  d E =-.268240E-01  mag=   120.0000
       N       E                     dE             d eps       ncg     rms          rms(c)
DAV:   1    -0.996039564102E+03    0.10596E-01   -0.70170E+00 12288   0.316E+00    0.118E+00
RMM:   2    -0.996063783691E+03   -0.24220E-01   -0.18738E-01 12602   0.611E-01    0.739E-01
RMM:   3    -0.996065934800E+03   -0.21511E-02   -0.11215E-02 13460   0.170E-01    0.400E-01
RMM:   4    -0.996065250796E+03    0.68400E-03   -0.16872E-03 14240   0.493E-02    0.235E-01
RMM:   5    -0.996064994433E+03    0.25636E-03   -0.11985E-03 12390   0.359E-02    0.606E-02
RMM:   6    -0.996064997524E+03   -0.30908E-05   -0.82529E-05  7476   0.168E-02    0.470E-02
RMM:   7    -0.996065001730E+03   -0.42061E-05   -0.42458E-05  7371   0.819E-03    0.284E-02
RMM:   8    -0.996065002980E+03   -0.12496E-05   -0.24405E-05  7250   0.742E-03
   6 F= -.99606500E+03 E0= -.99606500E+03  d E =-.148390E-01  mag=   120.0000
       N       E                     dE             d eps       ncg     rms          rms(c)
DAV:   1    -0.996020582204E+03    0.44420E-01   -0.14477E+01 12288   0.454E+00    0.168E+00
RMM:   2    -0.996070525854E+03   -0.49944E-01   -0.38644E-01 12597   0.878E-01    0.106E+00
RMM:   3    -0.996074979188E+03   -0.44533E-02   -0.23184E-02 13615   0.245E-01    0.574E-01
RMM:   4    -0.996073556379E+03    0.14228E-02   -0.33676E-03 15358   0.702E-02    0.337E-01
RMM:   5    -0.996073040219E+03    0.51616E-03   -0.24539E-03 12946   0.503E-02    0.877E-02
RMM:   6    -0.996073043904E+03   -0.36853E-05   -0.17627E-04  8230   0.231E-02    0.665E-02
RMM:   7    -0.996073050706E+03   -0.68018E-05   -0.77136E-05  7470   0.113E-02    0.382E-02
RMM:   8    -0.996073052934E+03   -0.22276E-05   -0.48129E-05  7388   0.984E-03
   7 F= -.99607305E+03 E0= -.99607305E+03  d E =-.228890E-01  mag=   120.0000
       N       E                     dE             d eps       ncg     rms          rms(c)
DAV:   1    -0.996045905046E+03    0.27146E-01   -0.11098E+01 12288   0.390E+00    0.136E+00
RMM:   2    -0.996084166199E+03   -0.38261E-01   -0.28428E-01 12680   0.730E-01    0.813E-01
RMM:   3    -0.996087340790E+03   -0.31746E-02   -0.16116E-02 13350   0.204E-01    0.416E-01
RMM:   4    -0.996086481483E+03    0.85931E-03   -0.24714E-03 14314   0.585E-02    0.241E-01
RMM:   5    -0.996086179913E+03    0.30157E-03   -0.15688E-03 12274   0.386E-02    0.725E-02
RMM:   6    -0.996086179811E+03    0.10153E-06   -0.11699E-04  7568   0.179E-02    0.487E-02
RMM:   7    -0.996086183524E+03   -0.37124E-05   -0.55809E-05  7439   0.899E-03    0.328E-02
RMM:   8    -0.996086184238E+03   -0.71456E-06   -0.34284E-05  7346   0.829E-03
   8 F= -.99608618E+03 E0= -.99608618E+03  d E =-.131313E-01  mag=   120.0000
       N       E                     dE             d eps       ncg     rms          rms(c)
DAV:   1    -0.996060098445E+03    0.26085E-01   -0.81708E+00 12288   0.334E+00    0.116E+00
RMM:   2    -0.996088256157E+03   -0.28158E-01   -0.20920E-01 12671   0.626E-01    0.695E-01
RMM:   3    -0.996090596314E+03   -0.23402E-02   -0.11903E-02 13314   0.175E-01    0.357E-01
RMM:   4    -0.996089963554E+03    0.63276E-03   -0.18197E-03 13880   0.502E-02    0.208E-01
RMM:   5    -0.996089738661E+03    0.22489E-03   -0.11579E-03 11837   0.336E-02    0.624E-02
RMM:   6    -0.996089739520E+03   -0.85877E-06   -0.90789E-05  7488   0.157E-02    0.426E-02
RMM:   7    -0.996089742432E+03   -0.29121E-05   -0.43592E-05  7398   0.817E-03    0.289E-02
RMM:   8    -0.996089742991E+03   -0.55895E-06   -0.27160E-05  7303   0.770E-03
   9 F= -.99608974E+03 E0= -.99608974E+03  d E =-.166901E-01  mag=   120.0000
       N       E                     dE             d eps       ncg     rms          rms(c)
DAV:   1    -0.996055090591E+03    0.34652E-01   -0.12674E+01 12448   0.411E+00    0.139E+00
RMM:   2    -0.996099062393E+03   -0.43972E-01   -0.31746E-01 12667   0.760E-01    0.775E-01
RMM:   3    -0.996102781547E+03   -0.37192E-02   -0.18043E-02 13323   0.212E-01    0.376E-01
RMM:   4    -0.996101917243E+03    0.86430E-03   -0.25085E-03 14191   0.586E-02    0.222E-01
RMM:   5    -0.996101622462E+03    0.29478E-03   -0.15102E-03 12034   0.375E-02    0.754E-02
RMM:   6    -0.996101627694E+03   -0.52311E-05   -0.13562E-04  7686   0.179E-02    0.408E-02
RMM:   7    -0.996101629824E+03   -0.21302E-05   -0.51479E-05  7408   0.933E-03    0.293E-02
RMM:   8    -0.996101629492E+03    0.33187E-06   -0.39909E-05  7320   0.813E-03
  10 F= -.99610163E+03 E0= -.99610163E+03  d E =-.118865E-01  mag=   120.0000
       N       E                     dE             d eps       ncg     rms          rms(c)
DAV:   1    -0.996056239361E+03    0.45390E-01   -0.13511E+01 12416   0.425E+00    0.143E+00
RMM:   2    -0.996103139515E+03   -0.46900E-01   -0.33877E-01 12668   0.785E-01    0.800E-01
RMM:   3    -0.996107116119E+03   -0.39766E-02   -0.19382E-02 13352   0.219E-01    0.389E-01
RMM:   4    -0.996106190842E+03    0.92528E-03   -0.26726E-03 14257   0.604E-02    0.230E-01
RMM:   5    -0.996105876813E+03    0.31403E-03   -0.16242E-03 12197   0.388E-02    0.782E-02
RMM:   6    -0.996105882623E+03   -0.58096E-05   -0.14857E-04  7822   0.184E-02    0.423E-02
RMM:   7    -0.996105884863E+03   -0.22403E-05   -0.54328E-05  7450   0.958E-03    0.302E-02
RMM:   8    -0.996105884749E+03    0.11420E-06   -0.45035E-05  7370   0.834E-03
  11 F= -.99610588E+03 E0= -.99610588E+03  d E =-.161418E-01  mag=   120.0000
       N       E                     dE             d eps       ncg     rms          rms(c)
DAV:   1    -0.996054721460E+03    0.51163E-01   -0.16546E+01 12648   0.471E+00    0.163E+00
RMM:   2    -0.996114076755E+03   -0.59355E-01   -0.41953E-01 12595   0.883E-01    0.935E-01
RMM:   3    -0.996119619876E+03   -0.55431E-02   -0.24851E-02 13289   0.248E-01    0.441E-01
RMM:   4    -0.996118574670E+03    0.10452E-02   -0.31628E-03 14690   0.670E-02    0.273E-01
RMM:   5    -0.996118124811E+03    0.44986E-03   -0.23116E-03 12272   0.455E-02    0.855E-02
RMM:   6    -0.996118133873E+03   -0.90612E-05   -0.20301E-04  8526   0.225E-02    0.546E-02
RMM:   7    -0.996118137566E+03   -0.36930E-05   -0.69258E-05  7472   0.108E-02    0.348E-02
RMM:   8    -0.996118136947E+03    0.61889E-06   -0.51523E-05  7395   0.946E-03
  12 F= -.99611814E+03 E0= -.99611814E+03  d E =-.122522E-01  mag=   120.0000
       N       E                     dE             d eps       ncg     rms          rms(c)
DAV:   1    -0.996093310038E+03    0.24828E-01   -0.71872E+00 12688   0.311E+00    0.108E+00
RMM:   2    -0.996119120377E+03   -0.25810E-01   -0.18256E-01 12591   0.582E-01    0.617E-01
RMM:   3    -0.996121538060E+03   -0.24177E-02   -0.10939E-02 13213   0.164E-01    0.292E-01
RMM:   4    -0.996121087673E+03    0.45039E-03   -0.13789E-03 13382   0.442E-02    0.182E-01
RMM:   5    -0.996120889869E+03    0.19780E-03   -0.10147E-03 11396   0.315E-02    0.564E-02
RMM:   6    -0.996120895511E+03   -0.56419E-05   -0.96062E-05  7485   0.159E-02    0.394E-02
RMM:   7    -0.996120898221E+03   -0.27093E-05   -0.39587E-05  7323   0.851E-03    0.263E-02
RMM:   8    -0.996120897872E+03    0.34898E-06   -0.25442E-05  7244   0.788E-03
  13 F= -.99612090E+03 E0= -.99612090E+03  d E =-.150131E-01  mag=   120.0000
       N       E                     dE             d eps       ncg     rms          rms(c)
DAV:   1    -0.996090708337E+03    0.30190E-01   -0.95129E+00 12408   0.361E+00    0.138E+00
RMM:   2    -0.996127490032E+03   -0.36782E-01   -0.24913E-01 12596   0.690E-01    0.828E-01
RMM:   3    -0.996131189174E+03   -0.36991E-02   -0.14725E-02 13259   0.197E-01    0.399E-01
RMM:   4    -0.996130558233E+03    0.63094E-03   -0.20156E-03 14381   0.546E-02    0.249E-01
RMM:   5    -0.996130231488E+03    0.32674E-03   -0.14949E-03 12175   0.381E-02    0.857E-02
RMM:   6    -0.996130231983E+03   -0.49478E-06   -0.13463E-04  7634   0.194E-02    0.637E-02
RMM:   7    -0.996130236525E+03   -0.45417E-05   -0.54956E-05  7388   0.996E-03    0.326E-02
RMM:   8    -0.996130235513E+03    0.10117E-05   -0.32215E-05  7291   0.874E-03
  14 F= -.99613024E+03 E0= -.99613024E+03  d E =-.933764E-02  mag=   120.0000
       N       E                     dE             d eps       ncg     rms          rms(c)
DAV:   1    -0.996118445282E+03    0.11791E-01   -0.32193E+00 12656   0.210E+00    0.804E-01
RMM:   2    -0.996130918503E+03   -0.12473E-01   -0.84558E-02 12592   0.401E-01    0.479E-01
RMM:   3    -0.996132173918E+03   -0.12554E-02   -0.50567E-03 12956   0.115E-01    0.232E-01
RMM:   4    -0.996131958709E+03    0.21521E-03   -0.66024E-04 11748   0.322E-02    0.145E-01
RMM:   5    -0.996131849398E+03    0.10931E-03   -0.52063E-04 10220   0.243E-02    0.535E-02
RMM:   6    -0.996131850407E+03   -0.10095E-05   -0.58382E-05  7378   0.128E-02    0.425E-02
RMM:   7    -0.996131852526E+03   -0.21186E-05   -0.25999E-05  7254   0.726E-03    0.205E-02
RMM:   8    -0.996131851923E+03    0.60233E-06   -0.14915E-05  7171   0.654E-03
  15 F= -.99613185E+03 E0= -.99613185E+03  d E =-.109541E-01  mag=   120.0000
       N       E                     dE             d eps       ncg     rms          rms(c)
DAV:   1    -0.996106359357E+03    0.25493E-01   -0.88339E+00 12432   0.349E+00    0.122E+00
RMM:   2    -0.996137792776E+03   -0.31433E-01   -0.23277E-01 12619   0.666E-01    0.709E-01
RMM:   3    -0.996140568186E+03   -0.27754E-02   -0.13447E-02 13334   0.185E-01    0.336E-01
RMM:   4    -0.996139977430E+03    0.59076E-03   -0.18012E-03 13927   0.510E-02    0.199E-01
RMM:   5    -0.996139769921E+03    0.20751E-03   -0.11408E-03 11854   0.335E-02    0.654E-02
RMM:   6    -0.996139776376E+03   -0.64546E-05   -0.94141E-05  7460   0.166E-02    0.426E-02
RMM:   7    -0.996139780331E+03   -0.39551E-05   -0.42803E-05  7331   0.861E-03    0.286E-02
RMM:   8    -0.996139782436E+03   -0.21055E-05   -0.25244E-05  7253   0.771E-03
  16 F= -.99613978E+03 E0= -.99613978E+03  d E =-.793051E-02  mag=   120.0000
       N       E                     dE             d eps       ncg     rms          rms(c)
DAV:   1    -0.996116912362E+03    0.22868E-01   -0.66950E+00 12448   0.304E+00    0.106E+00
RMM:   2    -0.996140763227E+03   -0.23851E-01   -0.17667E-01 12616   0.580E-01    0.618E-01
RMM:   3    -0.996142875914E+03   -0.21127E-02   -0.10324E-02 13317   0.161E-01    0.294E-01
RMM:   4    -0.996142425065E+03    0.45085E-03   -0.13751E-03 13356   0.445E-02    0.174E-01
RMM:   5    -0.996142268800E+03    0.15627E-03   -0.86733E-04 11303   0.298E-02    0.579E-02
RMM:   6    -0.996142275205E+03   -0.64055E-05   -0.78506E-05  7431   0.151E-02    0.385E-02
RMM:   7    -0.996142278711E+03   -0.35058E-05   -0.36199E-05  7306   0.802E-03    0.256E-02
RMM:   8    -0.996142280690E+03   -0.19789E-05   -0.21616E-05  7226   0.749E-03
  17 F= -.99614228E+03 E0= -.99614228E+03  d E =-.104288E-01  mag=   120.0000
       N       E                     dE             d eps       ncg     rms          rms(c)
DAV:   1    -0.996123424516E+03    0.18854E-01   -0.60888E+00 12672   0.289E+00    0.106E+00
RMM:   2    -0.996146674534E+03   -0.23250E-01   -0.15762E-01 12649   0.543E-01    0.607E-01
RMM:   3    -0.996148925838E+03   -0.22513E-02   -0.90260E-03 13363   0.150E-01    0.285E-01
RMM:   4    -0.996148532163E+03    0.39368E-03   -0.11918E-03 13093   0.418E-02    0.173E-01
RMM:   5    -0.996148369370E+03    0.16279E-03   -0.81793E-04 11110   0.291E-02    0.535E-02
RMM:   6    -0.996148373139E+03   -0.37687E-05   -0.77131E-05  7421   0.149E-02    0.384E-02
RMM:   7    -0.996148375973E+03   -0.28339E-05   -0.34821E-05  7288   0.798E-03    0.244E-02
RMM:   8    -0.996148375720E+03    0.25232E-06   -0.20924E-05  7211   0.749E-03
  18 F= -.99614838E+03 E0= -.99614838E+03  d E =-.609503E-02  mag=   120.0000
       N       E                     dE             d eps       ncg     rms          rms(c)
DAV:   1    -0.996130728311E+03    0.17648E-01   -0.46392E+00 12672   0.252E+00    0.929E-01
RMM:   2    -0.996148445338E+03   -0.17717E-01   -0.12009E-01 12643   0.474E-01    0.530E-01
RMM:   3    -0.996150166778E+03   -0.17214E-02   -0.69099E-03 13278   0.131E-01    0.249E-01
RMM:   4    -0.996149866234E+03    0.30054E-03   -0.89744E-04 12420   0.366E-02    0.151E-01
RMM:   5    -0.996149744016E+03    0.12222E-03   -0.63436E-04 10738   0.262E-02    0.477E-02
RMM:   6    -0.996149746957E+03   -0.29417E-05   -0.63266E-05  7378   0.135E-02    0.352E-02
RMM:   7    -0.996149749425E+03   -0.24677E-05   -0.29345E-05  7270   0.732E-03    0.214E-02
RMM:   8    -0.996149749241E+03    0.18415E-06   -0.17332E-05  7177   0.685E-03
  19 F= -.99614975E+03 E0= -.99614975E+03  d E =-.746855E-02  mag=   120.0000
       N       E                     dE             d eps       ncg     rms          rms(c)
DAV:   1    -0.996122235477E+03    0.27514E-01   -0.74976E+00 12552   0.319E+00    0.120E+00
RMM:   2    -0.996151239113E+03   -0.29004E-01   -0.19088E-01 12626   0.598E-01    0.673E-01
RMM:   3    -0.996154115767E+03   -0.28767E-02   -0.10745E-02 13206   0.166E-01    0.302E-01
RMM:   4    -0.996153596264E+03    0.51950E-03   -0.15980E-03 13306   0.474E-02    0.179E-01
RMM:   5    -0.996153418815E+03    0.17745E-03   -0.92471E-04 11321   0.306E-02    0.607E-02
RMM:   6    -0.996153425205E+03   -0.63904E-05   -0.85274E-05  7454   0.150E-02    0.319E-02
RMM:   7    -0.996153427497E+03   -0.22918E-05   -0.37885E-05  7310   0.817E-03    0.230E-02
RMM:   8    -0.996153428695E+03   -0.11982E-05   -0.21699E-05  7193   0.725E-03
  20 F= -.99615343E+03 E0= -.99615343E+03  d E =-.367945E-02  mag=   120.0000
       N       E                     dE             d eps       ncg     rms          rms(c)
DAV:   1    -0.996152516759E+03    0.91074E-03   -0.24386E-01 13312   0.576E-01    0.216E-01
RMM:   2    -0.996153471719E+03   -0.95496E-03   -0.63321E-03 12584   0.108E-01    0.121E-01
RMM:   3    -0.996153558410E+03   -0.86691E-04   -0.31101E-04  9156   0.307E-02    0.557E-02
RMM:   4    -0.996153545830E+03    0.12580E-04   -0.57008E-05  7220   0.114E-02    0.350E-02
RMM:   5    -0.996153541381E+03    0.44483E-05   -0.34739E-05  7092   0.793E-03    0.198E-02
RMM:   6    -0.996153542725E+03   -0.13435E-05   -0.12820E-05  6761   0.522E-03    0.855E-03
RMM:   7    -0.996153543279E+03   -0.55421E-06   -0.57536E-06  5983   0.382E-03    0.646E-03
RMM:   8    -0.996153543539E+03   -0.25958E-06   -0.29669E-06  4471   0.279E-03
  21 F= -.99615354E+03 E0= -.99615354E+03  d E =-.379430E-02  mag=   120.0000
       N       E                     dE             d eps       ncg     rms          rms(c)
DAV:   1    -0.996138986550E+03    0.14557E-01   -0.41159E+00 12320   0.237E+00    0.919E-01
RMM:   2    -0.996155031652E+03   -0.16045E-01   -0.10829E-01 12610   0.458E-01    0.538E-01
RMM:   3    -0.996156622379E+03   -0.15907E-02   -0.62399E-03 13087   0.125E-01    0.257E-01
RMM:   4    -0.996156252051E+03    0.37033E-03   -0.94262E-04 12230   0.378E-02    0.151E-01
RMM:   5    -0.996156130558E+03    0.12149E-03   -0.61443E-04 10924   0.272E-02    0.461E-02
RMM:   6    -0.996156131586E+03   -0.10276E-05   -0.47123E-05  7430   0.124E-02    0.319E-02
RMM:   7    -0.996156132914E+03   -0.13280E-05   -0.23228E-05  7269   0.625E-03    0.211E-02
RMM:   8    -0.996156132341E+03    0.57268E-06   -0.13461E-05  7080   0.622E-03
  22 F= -.99615613E+03 E0= -.99615613E+03  d E =-.258880E-02  mag=   120.0000
       N       E                     dE             d eps       ncg     rms          rms(c)
DAV:   1    -0.996156093077E+03    0.39836E-04   -0.91399E-03 13536   0.111E-01    0.446E-02
RMM:   2    -0.996156124883E+03   -0.31806E-04   -0.20314E-04  8102   0.216E-02    0.297E-02
RMM:   3    -0.996156130538E+03   -0.56553E-05   -0.22837E-05  6593   0.980E-03    0.128E-02
RMM:   4    -0.996156130370E+03    0.16810E-06   -0.51499E-06  5186   0.384E-03    0.907E-03
RMM:   5    -0.996156130057E+03    0.31365E-06   -0.18177E-06  4257   0.273E-03    0.376E-03
RMM:   6    -0.996156130077E+03   -0.19863E-07   -0.47579E-07  2150   0.197E-03    0.146E-03
RMM:   7    -0.996156130077E+03   -0.77125E-09   -0.71170E-08  1569   0.182E-03    0.618E-04
RMM:   8    -0.996156130083E+03   -0.52823E-08   -0.23923E-08  1409   0.180E-03
  23 F= -.99615613E+03 E0= -.99615613E+03  d E =-.258654E-02  mag=   120.0000
       N       E                     dE             d eps       ncg     rms          rms(c)
DAV:   1    -0.996151934122E+03    0.41960E-02   -0.16797E+00 12368   0.152E+00    0.531E-01
RMM:   2    -0.996157428016E+03   -0.54939E-02   -0.44568E-02 12628   0.294E-01    0.329E-01
RMM:   3    -0.996157828124E+03   -0.40011E-03   -0.26226E-03 12751   0.806E-02    0.181E-01
RMM:   4    -0.996157666673E+03    0.16145E-03   -0.34778E-04  9410   0.236E-02    0.106E-01
RMM:   5    -0.996157606886E+03    0.59787E-04   -0.25866E-04  8224   0.190E-02    0.313E-02
RMM:   6    -0.996157610300E+03   -0.34140E-05   -0.36323E-05  7269   0.113E-02    0.343E-02
RMM:   7    -0.996157611635E+03   -0.13351E-05   -0.15426E-05  7045   0.558E-03    0.145E-02
RMM:   8    -0.996157611832E+03   -0.19703E-06   -0.79781E-06  6837   0.510E-03
  24 F= -.99615761E+03 E0= -.99615761E+03  d E =-.148175E-02  mag=   120.0000
       N       E                     dE             d eps       ncg     rms          rms(c)
DAV:   1    -0.996157487384E+03    0.12425E-03   -0.23657E-02 13016   0.180E-01    0.617E-02
RMM:   2    -0.996157565397E+03   -0.78013E-04   -0.63461E-04 10871   0.351E-02    0.383E-02
RMM:   3    -0.996157570963E+03   -0.55660E-05   -0.35994E-05  6949   0.117E-02    0.237E-02
RMM:   4    -0.996157570251E+03    0.71134E-06   -0.10283E-05  6443   0.519E-03    0.141E-02
RMM:   5    -0.996157569359E+03    0.89298E-06   -0.60932E-06  5737   0.343E-03    0.709E-03
RMM:   6    -0.996157569494E+03   -0.13542E-06   -0.16521E-06  4087   0.264E-03    0.347E-03
RMM:   7    -0.996157569545E+03   -0.51296E-07   -0.40239E-07  2519   0.194E-03    0.145E-03
RMM:   8    -0.996157569573E+03   -0.27983E-07   -0.25867E-07  2105   0.197E-03
  25 F= -.99615757E+03 E0= -.99615757E+03  d E =-.143949E-02  mag=   120.0000
       N       E                     dE             d eps       ncg     rms          rms(c)
DAV:   1    -0.996153283240E+03    0.42863E-02   -0.14329E+00 12352   0.141E+00    0.512E-01
RMM:   2    -0.996158281017E+03   -0.49978E-02   -0.37473E-02 12610   0.268E-01    0.299E-01
RMM:   3    -0.996158715341E+03   -0.43432E-03   -0.22218E-03 12789   0.762E-02    0.153E-01
RMM:   4    -0.996158585873E+03    0.12947E-03   -0.32739E-04  9282   0.229E-02    0.872E-02
RMM:   5    -0.996158547842E+03    0.38031E-04   -0.17101E-04  7474   0.169E-02    0.362E-02
RMM:   6    -0.996158552616E+03   -0.47740E-05   -0.38810E-05  7239   0.116E-02    0.409E-02
RMM:   7    -0.996158554446E+03   -0.18305E-05   -0.16716E-05  7073   0.594E-03    0.138E-02
RMM:   8    -0.996158555501E+03   -0.10548E-05   -0.89297E-06  6872   0.537E-03
  26 F= -.99615856E+03 E0= -.99615856E+03  d E =-.985928E-03  mag=   120.0000
