<?xml version="1.0" encoding="ISO-8859-1"?>
<modeling>
 <generator>
  <i name="program" type="string">vasp </i>
  <i name="version" type="string">5.4.1  </i>
  <i name="subversion" type="string">05Feb16 (build Jan 25 2017 20:16:33) complex                          parallel </i>
  <i name="platform" type="string">BWXE6 </i>
  <i name="date" type="string">2019 08 06 </i>
  <i name="time" type="string">15:40:56 </i>
 </generator>
 <incar>
  <i type="string" name="SYSTEM"> STF</i>
  <i type="string" name="PREC">normal</i>
  <i type="string" name="ALGO"> Fast</i>
  <i type="int" name="ISPIN">     2</i>
  <i type="int" name="NELM">    40</i>
  <i type="int" name="NELMIN">     8</i>
  <i type="int" name="IBRION">     2</i>
  <i name="EDIFF">      0.00010000</i>
  <i name="EDIFFG">     -0.03000000</i>
  <i type="int" name="NSW">    30</i>
  <i type="int" name="ISIF">     3</i>
  <i name="ENCUT">    520.00000000</i>
  <i type="int" name="NBANDS">   768</i>
  <v name="MAGMOM">      0.60000000      0.60000000      0.60000000      0.60000000      0.60000000      0.60000000      0.60000000      0.60000000      0.60000000      0.60000000      0.60000000      0.60000000      0.60000000      0.60000000      0.60000000      0.60000000      0.60000000      0.60000000      0.60000000      0.60000000
      0.60000000      0.60000000      0.60000000      0.60000000      0.60000000      0.60000000      0.60000000      0.60000000      0.60000000      0.60000000      0.60000000      0.60000000      0.60000000      0.60000000      0.60000000      0.60000000      0.60000000      0.60000000      0.60000000      0.60000000
      5.00000000      5.00000000      5.00000000      5.00000000      5.00000000      5.00000000      5.00000000      5.00000000      5.00000000      5.00000000      5.00000000      5.00000000      5.00000000      5.00000000      5.00000000      5.00000000      5.00000000      5.00000000      5.00000000      5.00000000
      5.00000000      5.00000000      5.00000000      5.00000000      0.60000000      0.60000000      0.60000000      0.60000000      0.60000000      0.60000000      0.60000000      0.60000000      0.60000000      0.60000000      0.60000000      0.60000000      0.60000000      0.60000000      0.60000000      0.60000000
      0.60000000      0.60000000      0.60000000      0.60000000      0.60000000      0.60000000      0.60000000      0.60000000      0.60000000      0.60000000      0.60000000      0.60000000      0.60000000      0.60000000      0.60000000      0.60000000      0.60000000      0.60000000      0.60000000      0.60000000
      0.60000000      0.60000000      0.60000000      0.60000000      0.60000000      0.60000000      0.60000000      0.60000000      0.60000000      0.60000000      0.60000000      0.60000000      0.60000000      0.60000000      0.60000000      0.60000000      0.60000000      0.60000000      0.60000000      0.60000000
      0.60000000      0.60000000      0.60000000      0.60000000      0.60000000      0.60000000      0.60000000      0.60000000      0.60000000      0.60000000      0.60000000      0.60000000      0.60000000      0.60000000      0.60000000      0.60000000      0.60000000      0.60000000      0.60000000      0.60000000
      0.60000000      0.60000000      0.60000000      0.60000000      0.60000000      0.60000000      0.60000000      0.60000000</v>
  <i type="string" name="LREAL"> Auto</i>
  <i type="int" name="ISMEAR">     0</i>
  <i name="SIGMA">      0.05000000</i>
  <i type="int" name="LMAXMIX">     4</i>
  <v type="int" name="KPOINT_BSE">    -1     0     0     0</v>
  <i type="int" name="NELM">    40</i>
  <i type="logical" name="LDAU"> T  </i>
  <v type="int" name="LDAUTYPE">     2</v>
  <v type="int" name="LDAUL">     0     2     2     0</v>
  <v name="LDAUU">      0.00000000      3.00000000      5.00000000      0.00000000</v>
  <v name="LDAUJ">      0.00000000      0.00000000      0.00000000      0.00000000</v>
  <i type="int" name="LDAUPRINT">     1</i>
 </incar>
 <kpoints>
  <generation param="Monkhorst-Pack">
   <v type="int" name="divisions">       2        2        2 </v>
   <v name="usershift">      0.00000000       0.00000000       0.00000000 </v>
   <v name="genvec1">      0.50000000       0.00000000       0.00000000 </v>
   <v name="genvec2">     -0.00000000       0.50000000      -0.00000000 </v>
   <v name="genvec3">      0.00000000       0.00000000       0.50000000 </v>
   <v name="shift">      0.50000000       0.50000000       0.50000000 </v>
  </generation>
  <varray name="kpointlist" >
   <v>       0.25000000       0.25000000       0.25000000 </v>
   <v>      -0.25000000       0.25000000       0.25000000 </v>
   <v>       0.25000000      -0.25000000       0.25000000 </v>
   <v>      -0.25000000      -0.25000000       0.25000000 </v>
  </varray>
  <varray name="weights" >
   <v>       0.25000000 </v>
   <v>       0.25000000 </v>
   <v>       0.25000000 </v>
   <v>       0.25000000 </v>
  </varray>
 </kpoints>
 <parameters>
  <separator name="general" >
   <i type="string" name="SYSTEM">STF</i>
   <i type="logical" name="LCOMPAT"> F  </i>
  </separator>
  <separator name="electronic" >
   <i type="string" name="PREC">normal</i>
   <i name="ENMAX">    520.00000000</i>
   <i name="ENAUG">    605.39200000</i>
   <i name="EDIFF">      0.00010000</i>
   <i type="int" name="IALGO">    68</i>
   <i type="int" name="IWAVPR">    11</i>
   <i type="int" name="NBANDS">   768</i>
   <i name="NELECT">   1048.00000000</i>
   <i type="int" name="TURBO">     0</i>
   <i type="int" name="IRESTART">     0</i>
   <i type="int" name="NREBOOT">     0</i>
   <i type="int" name="NMIN">     0</i>
   <i name="EREF">      0.00000000</i>
   <separator name="electronic smearing" >
    <i type="int" name="ISMEAR">     0</i>
    <i name="SIGMA">      0.05000000</i>
    <i name="KSPACING">      0.50000000</i>
    <i type="logical" name="KGAMMA"> T  </i>
   </separator>
   <separator name="electronic projectors" >
    <i type="logical" name="LREAL"> T  </i>
    <v name="ROPT">     -0.00050000     -0.00050000     -0.00050000     -0.00050000</v>
    <i type="int" name="LMAXPAW">  -100</i>
    <i type="int" name="LMAXMIX">     4</i>
    <i type="logical" name="NLSPLINE"> F  </i>
   </separator>
   <separator name="electronic startup" >
    <i type="int" name="ISTART">     1</i>
    <i type="int" name="ICHARG">     0</i>
    <i type="int" name="INIWAV">     1</i>
   </separator>
   <separator name="electronic spin" >
    <i type="int" name="ISPIN">     2</i>
    <i type="logical" name="LNONCOLLINEAR"> F  </i>
    <v name="MAGMOM">      0.60000000      0.60000000      0.60000000      0.60000000      0.60000000      0.60000000      0.60000000      0.60000000      0.60000000      0.60000000      0.60000000      0.60000000      0.60000000      0.60000000      0.60000000      0.60000000      0.60000000      0.60000000      0.60000000      0.60000000
      0.60000000      0.60000000      0.60000000      0.60000000      0.60000000      0.60000000      0.60000000      0.60000000      0.60000000      0.60000000      0.60000000      0.60000000      0.60000000      0.60000000      0.60000000      0.60000000      0.60000000      0.60000000      0.60000000      0.60000000
      5.00000000      5.00000000      5.00000000      5.00000000      5.00000000      5.00000000      5.00000000      5.00000000      5.00000000      5.00000000      5.00000000      5.00000000      5.00000000      5.00000000      5.00000000      5.00000000      5.00000000      5.00000000      5.00000000      5.00000000
      5.00000000      5.00000000      5.00000000      5.00000000      0.60000000      0.60000000      0.60000000      0.60000000      0.60000000      0.60000000      0.60000000      0.60000000      0.60000000      0.60000000      0.60000000      0.60000000      0.60000000      0.60000000      0.60000000      0.60000000
      0.60000000      0.60000000      0.60000000      0.60000000      0.60000000      0.60000000      0.60000000      0.60000000      0.60000000      0.60000000      0.60000000      0.60000000      0.60000000      0.60000000      0.60000000      0.60000000      0.60000000      0.60000000      0.60000000      0.60000000
      0.60000000      0.60000000      0.60000000      0.60000000      0.60000000      0.60000000      0.60000000      0.60000000      0.60000000      0.60000000      0.60000000      0.60000000      0.60000000      0.60000000      0.60000000      0.60000000      0.60000000      0.60000000      0.60000000      0.60000000
      0.60000000      0.60000000      0.60000000      0.60000000      0.60000000      0.60000000      0.60000000      0.60000000      0.60000000      0.60000000      0.60000000      0.60000000      0.60000000      0.60000000      0.60000000      0.60000000      0.60000000      0.60000000      0.60000000      0.60000000
      0.60000000      0.60000000      0.60000000      0.60000000      0.60000000      0.60000000      0.60000000      0.60000000</v>
    <i name="NUPDOWN">     -1.00000000</i>
    <i type="logical" name="LSORBIT"> F  </i>
    <v name="SAXIS">      0.00000000      0.00000000      1.00000000</v>
    <i type="logical" name="LSPIRAL"> F  </i>
    <v name="QSPIRAL">      0.00000000      0.00000000      0.00000000</v>
    <i type="logical" name="LZEROZ"> F  </i>
   </separator>
   <separator name="electronic exchange-correlation" >
    <i type="logical" name="LASPH"> F  </i>
    <i type="logical" name="LMETAGGA"> F  </i>
   </separator>
   <separator name="electronic convergence" >
    <i type="int" name="NELM">    40</i>
    <i type="int" name="NELMDL">     0</i>
    <i type="int" name="NELMIN">     8</i>
    <i name="ENINI">    520.00000000</i>
    <separator name="electronic convergence detail" >
     <i type="logical" name="LDIAG"> T  </i>
     <i type="logical" name="LSUBROT"> F  </i>
     <i name="WEIMIN">      0.00100000</i>
     <i name="EBREAK">      0.00000003</i>
     <i name="DEPER">      0.30000000</i>
     <i type="int" name="NRMM">     4</i>
     <i name="TIME">      0.40000000</i>
    </separator>
   </separator>
   <separator name="electronic mixer" >
    <i name="AMIX">      0.40000000</i>
    <i name="BMIX">      1.00000000</i>
    <i name="AMIN">      0.10000000</i>
    <i name="AMIX_MAG">      1.60000000</i>
    <i name="BMIX_MAG">      1.00000000</i>
    <separator name="electronic mixer details" >
     <i type="int" name="IMIX">     4</i>
     <i type="logical" name="MIXFIRST"> F  </i>
     <i type="int" name="MAXMIX">   -45</i>
     <i name="WC">    100.00000000</i>
     <i type="int" name="INIMIX">     1</i>
     <i type="int" name="MIXPRE">     1</i>
     <i type="int" name="MREMOVE">     5</i>
    </separator>
   </separator>
   <separator name="electronic dipolcorrection" >
    <i type="logical" name="LDIPOL"> F  </i>
    <i type="logical" name="LMONO"> F  </i>
    <i type="int" name="IDIPOL">     0</i>
    <i name="EPSILON">      1.00000000</i>
    <v name="DIPOL">   -100.00000000   -100.00000000   -100.00000000</v>
    <i name="EFIELD">      0.00000000</i>
   </separator>
  </separator>
  <separator name="grids" >
   <i type="int" name="NGX">    64</i>
   <i type="int" name="NGY">    64</i>
   <i type="int" name="NGZ">    90</i>
   <i type="int" name="NGXF">   128</i>
   <i type="int" name="NGYF">   128</i>
   <i type="int" name="NGZF">   180</i>
   <i type="logical" name="ADDGRID"> F  </i>
  </separator>
  <separator name="ionic" >
   <i type="int" name="NSW">    30</i>
   <i type="int" name="IBRION">     2</i>
   <i type="int" name="ISIF">     3</i>
   <i name="PSTRESS">      0.00000000</i>
   <i name="EDIFFG">     -0.03000000</i>
   <i type="int" name="NFREE">     1</i>
   <i name="POTIM">      0.50000000</i>
   <i name="SMASS">     -3.00000000</i>
   <i name="SCALEE">      1.00000000</i>
  </separator>
  <separator name="ionic md" >
   <i name="TEBEG">      0.00010000</i>
   <i name="TEEND">      0.00010000</i>
   <i type="int" name="NBLOCK">     1</i>
   <i type="int" name="KBLOCK">    30</i>
   <i type="int" name="NPACO">   256</i>
   <i name="APACO">     16.00000000</i>
  </separator>
  <separator name="symmetry" >
   <i type="int" name="ISYM">     2</i>
   <i name="SYMPREC">      0.00001000</i>
  </separator>
  <separator name="dos" >
   <i type="logical" name="LORBIT"> F  </i>
   <v name="RWIGS">     -1.00000000     -1.00000000     -1.00000000     -1.00000000</v>
   <i type="int" name="NEDOS">   301</i>
   <i name="EMIN">     10.00000000</i>
   <i name="EMAX">    -10.00000000</i>
   <i name="EFERMI">      0.00000000</i>
  </separator>
  <separator name="writing" >
   <i type="int" name="NWRITE">     2</i>
   <i type="logical" name="LWAVE"> T  </i>
   <i type="logical" name="LCHARG"> T  </i>
   <i type="logical" name="LPARD"> F  </i>
   <i type="logical" name="LVTOT"> F  </i>
   <i type="logical" name="LVHAR"> F  </i>
   <i type="logical" name="LELF"> F  </i>
   <i type="logical" name="LOPTICS"> F  </i>
   <v name="STM">      0.00000000      0.00000000      0.00000000      0.00000000      0.00000000      0.00000000      0.00000000</v>
  </separator>
  <separator name="performance" >
   <i type="int" name="NPAR">     2</i>
   <i type="int" name="NSIM">     4</i>
   <i type="int" name="NBLK">    -1</i>
   <i type="logical" name="LPLANE"> T  </i>
   <i type="logical" name="LSCALAPACK"> T  </i>
   <i type="logical" name="LSCAAWARE"> F  </i>
   <i type="logical" name="LSCALU"> F  </i>
   <i type="logical" name="LASYNC"> F  </i>
   <i type="logical" name="LORBITALREAL"> F  </i>
  </separator>
  <separator name="miscellaneous" >
   <i type="int" name="IDIOT">     3</i>
   <i type="logical" name="LMUSIC"> F  </i>
   <v name="POMASS">     87.62000000     47.88000000     55.84700000     16.00000000</v>
   <v name="DARWINR">      0.00000000      0.00000000      0.00000000      0.00000000</v>
   <v name="DARWINV">      1.00000000      1.00000000      1.00000000      1.00000000</v>
   <i type="logical" name="LCORR"> T  </i>
  </separator>
  <i type="logical" name="GGA_COMPAT"> T  </i>
  <i type="logical" name="LBERRY"> F  </i>
  <i type="int" name="ICORELEVEL">     0</i>
  <i type="logical" name="LDAU"> T  </i>
  <v type="int" name="LDAUTYPE">     2</v>
  <v type="int" name="LDAUL">     0</v>
  <v name="LDAUU">      0.00000000</v>
  <v name="LDAUJ">      0.00000000</v>
  <i type="int" name="LDAUPRINT">     1</i>
  <i type="int" name="I_CONSTRAINED_M">     0</i>
  <separator name="electronic exchange-correlation" >
   <i type="string" name="GGA">--</i>
   <i type="int" name="VOSKOWN">     0</i>
   <i type="logical" name="LHFCALC"> F  </i>
   <i type="string" name="PRECFOCK"></i>
   <i type="logical" name="LSYMGRAD"> F  </i>
   <i type="logical" name="LHFONE"> F  </i>
   <i type="logical" name="LRHFCALC"> F  </i>
   <i type="logical" name="LTHOMAS"> F  </i>
   <i type="logical" name="LMODELHF"> F  </i>
   <i name="ENCUT4O">     -1.00000000</i>
   <i type="int" name="EXXOEP">     0</i>
   <i type="int" name="FOURORBIT">     0</i>
   <i name="AEXX">      0.00000000</i>
   <i name="HFALPHA">      0.00000000</i>
   <i name="MCALPHA">      0.00000000</i>
   <i name="ALDAX">      1.00000000</i>
   <i name="AGGAX">      1.00000000</i>
   <i name="ALDAC">      1.00000000</i>
   <i name="AGGAC">      1.00000000</i>
   <i type="int" name="NKREDX">     1</i>
   <i type="int" name="NKREDY">     1</i>
   <i type="int" name="NKREDZ">     1</i>
   <i type="logical" name="SHIFTRED"> F  </i>
   <i type="logical" name="ODDONLY"> F  </i>
   <i type="logical" name="EVENONLY"> F  </i>
   <i type="int" name="LMAXFOCK">     0</i>
   <i type="int" name="NMAXFOCKAE">     0</i>
   <i type="logical" name="LFOCKAEDFT"> F  </i>
   <i name="HFSCREEN">      0.00000000</i>
   <i name="HFSCREENC">      0.00000000</i>
   <i type="int" name="NBANDSGWLOW">     0</i>
  </separator>
  <separator name="vdW DFT" >
   <i type="logical" name="LUSE_VDW"> F  </i>
   <i name="Zab_VDW">     -0.84910000</i>
   <i name="PARAM1">      0.12340000</i>
   <i name="PARAM2">      1.00000000</i>
   <i name="PARAM3">      0.00000000</i>
  </separator>
  <separator name="model GW" >
   <i type="int" name="MODEL_GW">     0</i>
   <i name="MODEL_EPS0">      8.15797784</i>
   <i name="MODEL_ALPHA">      1.00000000</i>
  </separator>
  <separator name="linear response parameters" >
   <i type="logical" name="LEPSILON"> F  </i>
   <i type="logical" name="LRPA"> F  </i>
   <i type="logical" name="LNABLA"> F  </i>
   <i type="logical" name="LVEL"> F  </i>
   <i type="int" name="KINTER">     0</i>
   <i name="CSHIFT">      0.10000000</i>
   <i name="OMEGAMAX">     -1.00000000</i>
   <i name="DEG_THRESHOLD">      0.00200000</i>
  </separator>
  <separator name="orbital magnetization" >
   <i type="logical" name="NUCIND"> F  </i>
   <v name="MAGPOS">      0.00000000      0.00000000      0.00000000</v>
   <i type="logical" name="LNICSALL"> T  </i>
   <i type="logical" name="ORBITALMAG"> F  </i>
   <i type="logical" name="LMAGBLOCH"> F  </i>
   <i type="logical" name="LCHIMAG"> F  </i>
   <i type="logical" name="LGAUGE"> T  </i>
   <i type="int" name="MAGATOM">     0</i>
   <v name="MAGDIPOL">      0.00000000      0.00000000      0.00000000</v>
   <v name="AVECCONST">      0.00000000      0.00000000      0.00000000</v>
  </separator>
  <separator name="response functions" >
   <i type="logical" name="LADDER"> F  </i>
   <i type="logical" name="LFXC"> F  </i>
   <i type="logical" name="LHARTREE"> T  </i>
   <i type="int" name="IBSE">     0</i>
   <v type="int" name="KPOINT">    -1     0     0     0</v>
   <i type="logical" name="LTCTE"> F  </i>
   <i type="logical" name="LTETE"> F  </i>
   <i type="logical" name="LTRIPLET"> F  </i>
   <i type="logical" name="LFXCEPS"> F  </i>
   <i type="logical" name="LFXHEG"> F  </i>
   <i type="int" name="NATURALO">     0</i>
   <i type="logical" name="L2ORDER"> F  </i>
   <i type="logical" name="LUSEW"> F  </i>
   <i name="ENCUTGW">     -2.00000000</i>
   <i name="ENCUTGWSOFT">     -2.00000000</i>
   <i name="ENCUTLF">     -1.00000000</i>
   <i type="int" name="LMAXMP2">    -1</i>
   <i name="SCISSOR">      0.00000000</i>
   <i type="int" name="NOMEGA">     0</i>
   <i type="int" name="NOMEGAR">     0</i>
   <i type="int" name="NBANDSGW">    -1</i>
   <i type="int" name="NBANDSO">    -1</i>
   <i type="int" name="NBANDSV">    -1</i>
   <i type="int" name="NELM">    40</i>
   <i type="int" name="NELMHF">     1</i>
   <i type="int" name="DIM">     3</i>
   <i type="int" name="ANTIRES">     0</i>
   <i name="OMEGAMAX">    -30.00000000</i>
   <i name="OMEGAMIN">    -30.00000000</i>
   <i name="OMEGATL">   -200.00000000</i>
   <i type="int" name="OMEGAGRID">     0</i>
   <i name="CSHIFT">     -0.10000000</i>
   <i type="logical" name="SELFENERGY"> F  </i>
   <i type="logical" name="LSPECTRAL"> F  </i>
   <i type="logical" name="LSPECTRALGW"> F  </i>
   <i type="logical" name="LSINGLES"> F  </i>
   <i type="logical" name="LFERMIGW"> F  </i>
   <i type="logical" name="ODDONLYGW"> F  </i>
   <i type="logical" name="EVENONLYGW"> F  </i>
   <i type="int" name="NKREDLFX">     1</i>
   <i type="int" name="NKREDLFY">     1</i>
   <i type="int" name="NKREDLFZ">     1</i>
   <i type="int" name="MAXMEM">  1800</i>
   <i type="int" name="TELESCOPE">     0</i>
   <i type="int" name="TAUPAR">     1</i>
   <i type="int" name="OMEGAPAR">    -1</i>
   <i name="LAMBDA">      1.00000000</i>
  </separator>
  <separator name="External order field" >
   <i name="OFIELD_KAPPA">      0.00000000</i>
   <v name="OFIELD_K">      0.00000000      0.00000000      0.00000000</v>
   <i name="OFIELD_Q6_NEAR">      0.00000000</i>
   <i name="OFIELD_Q6_FAR">      0.00000000</i>
   <i name="OFIELD_A">      0.00000000</i>
  </separator>
 </parameters>
 <atominfo>
  <atoms>     148 </atoms>
  <types>       4 </types>
  <array name="atoms" >
   <dimension dim="1">ion</dimension>
   <field type="string">element</field>
   <field type="int">atomtype</field>
   <set>
    <rc><c>Sr</c><c>   1</c></rc>
    <rc><c>Sr</c><c>   1</c></rc>
    <rc><c>Sr</c><c>   1</c></rc>
    <rc><c>Sr</c><c>   1</c></rc>
    <rc><c>Sr</c><c>   1</c></rc>
    <rc><c>Sr</c><c>   1</c></rc>
    <rc><c>Sr</c><c>   1</c></rc>
    <rc><c>Sr</c><c>   1</c></rc>
    <rc><c>Sr</c><c>   1</c></rc>
    <rc><c>Sr</c><c>   1</c></rc>
    <rc><c>Sr</c><c>   1</c></rc>
    <rc><c>Sr</c><c>   1</c></rc>
    <rc><c>Sr</c><c>   1</c></rc>
    <rc><c>Sr</c><c>   1</c></rc>
    <rc><c>Sr</c><c>   1</c></rc>
    <rc><c>Sr</c><c>   1</c></rc>
    <rc><c>Sr</c><c>   1</c></rc>
    <rc><c>Sr</c><c>   1</c></rc>
    <rc><c>Sr</c><c>   1</c></rc>
    <rc><c>Sr</c><c>   1</c></rc>
    <rc><c>Sr</c><c>   1</c></rc>
    <rc><c>Sr</c><c>   1</c></rc>
    <rc><c>Sr</c><c>   1</c></rc>
    <rc><c>Sr</c><c>   1</c></rc>
    <rc><c>Sr</c><c>   1</c></rc>
    <rc><c>Sr</c><c>   1</c></rc>
    <rc><c>Sr</c><c>   1</c></rc>
    <rc><c>Sr</c><c>   1</c></rc>
    <rc><c>Sr</c><c>   1</c></rc>
    <rc><c>Sr</c><c>   1</c></rc>
    <rc><c>Sr</c><c>   1</c></rc>
    <rc><c>Sr</c><c>   1</c></rc>
    <rc><c>Ti</c><c>   2</c></rc>
    <rc><c>Ti</c><c>   2</c></rc>
    <rc><c>Ti</c><c>   2</c></rc>
    <rc><c>Ti</c><c>   2</c></rc>
    <rc><c>Ti</c><c>   2</c></rc>
    <rc><c>Ti</c><c>   2</c></rc>
    <rc><c>Ti</c><c>   2</c></rc>
    <rc><c>Ti</c><c>   2</c></rc>
    <rc><c>Fe</c><c>   3</c></rc>
    <rc><c>Fe</c><c>   3</c></rc>
    <rc><c>Fe</c><c>   3</c></rc>
    <rc><c>Fe</c><c>   3</c></rc>
    <rc><c>Fe</c><c>   3</c></rc>
    <rc><c>Fe</c><c>   3</c></rc>
    <rc><c>Fe</c><c>   3</c></rc>
    <rc><c>Fe</c><c>   3</c></rc>
    <rc><c>Fe</c><c>   3</c></rc>
    <rc><c>Fe</c><c>   3</c></rc>
    <rc><c>Fe</c><c>   3</c></rc>
    <rc><c>Fe</c><c>   3</c></rc>
    <rc><c>Fe</c><c>   3</c></rc>
    <rc><c>Fe</c><c>   3</c></rc>
    <rc><c>Fe</c><c>   3</c></rc>
    <rc><c>Fe</c><c>   3</c></rc>
    <rc><c>Fe</c><c>   3</c></rc>
    <rc><c>Fe</c><c>   3</c></rc>
    <rc><c>Fe</c><c>   3</c></rc>
    <rc><c>Fe</c><c>   3</c></rc>
    <rc><c>Fe</c><c>   3</c></rc>
    <rc><c>Fe</c><c>   3</c></rc>
    <rc><c>Fe</c><c>   3</c></rc>
    <rc><c>Fe</c><c>   3</c></rc>
    <rc><c>O </c><c>   4</c></rc>
    <rc><c>O </c><c>   4</c></rc>
    <rc><c>O </c><c>   4</c></rc>
    <rc><c>O </c><c>   4</c></rc>
    <rc><c>O </c><c>   4</c></rc>
    <rc><c>O </c><c>   4</c></rc>
    <rc><c>O </c><c>   4</c></rc>
    <rc><c>O </c><c>   4</c></rc>
    <rc><c>O </c><c>   4</c></rc>
    <rc><c>O </c><c>   4</c></rc>
    <rc><c>O </c><c>   4</c></rc>
    <rc><c>O </c><c>   4</c></rc>
    <rc><c>O </c><c>   4</c></rc>
    <rc><c>O </c><c>   4</c></rc>
    <rc><c>O </c><c>   4</c></rc>
    <rc><c>O </c><c>   4</c></rc>
    <rc><c>O </c><c>   4</c></rc>
    <rc><c>O </c><c>   4</c></rc>
    <rc><c>O </c><c>   4</c></rc>
    <rc><c>O </c><c>   4</c></rc>
    <rc><c>O </c><c>   4</c></rc>
    <rc><c>O </c><c>   4</c></rc>
    <rc><c>O </c><c>   4</c></rc>
    <rc><c>O </c><c>   4</c></rc>
    <rc><c>O </c><c>   4</c></rc>
    <rc><c>O </c><c>   4</c></rc>
    <rc><c>O </c><c>   4</c></rc>
    <rc><c>O </c><c>   4</c></rc>
    <rc><c>O </c><c>   4</c></rc>
    <rc><c>O </c><c>   4</c></rc>
    <rc><c>O </c><c>   4</c></rc>
    <rc><c>O </c><c>   4</c></rc>
    <rc><c>O </c><c>   4</c></rc>
    <rc><c>O </c><c>   4</c></rc>
    <rc><c>O </c><c>   4</c></rc>
    <rc><c>O </c><c>   4</c></rc>
    <rc><c>O </c><c>   4</c></rc>
    <rc><c>O </c><c>   4</c></rc>
    <rc><c>O </c><c>   4</c></rc>
    <rc><c>O </c><c>   4</c></rc>
    <rc><c>O </c><c>   4</c></rc>
    <rc><c>O </c><c>   4</c></rc>
    <rc><c>O </c><c>   4</c></rc>
    <rc><c>O </c><c>   4</c></rc>
    <rc><c>O </c><c>   4</c></rc>
    <rc><c>O </c><c>   4</c></rc>
    <rc><c>O </c><c>   4</c></rc>
    <rc><c>O </c><c>   4</c></rc>
    <rc><c>O </c><c>   4</c></rc>
    <rc><c>O </c><c>   4</c></rc>
    <rc><c>O </c><c>   4</c></rc>
    <rc><c>O </c><c>   4</c></rc>
    <rc><c>O </c><c>   4</c></rc>
    <rc><c>O </c><c>   4</c></rc>
    <rc><c>O </c><c>   4</c></rc>
    <rc><c>O </c><c>   4</c></rc>
    <rc><c>O </c><c>   4</c></rc>
    <rc><c>O </c><c>   4</c></rc>
    <rc><c>O </c><c>   4</c></rc>
    <rc><c>O </c><c>   4</c></rc>
    <rc><c>O </c><c>   4</c></rc>
    <rc><c>O </c><c>   4</c></rc>
    <rc><c>O </c><c>   4</c></rc>
    <rc><c>O </c><c>   4</c></rc>
    <rc><c>O </c><c>   4</c></rc>
    <rc><c>O </c><c>   4</c></rc>
    <rc><c>O </c><c>   4</c></rc>
    <rc><c>O </c><c>   4</c></rc>
    <rc><c>O </c><c>   4</c></rc>
    <rc><c>O </c><c>   4</c></rc>
    <rc><c>O </c><c>   4</c></rc>
    <rc><c>O </c><c>   4</c></rc>
    <rc><c>O </c><c>   4</c></rc>
    <rc><c>O </c><c>   4</c></rc>
    <rc><c>O </c><c>   4</c></rc>
    <rc><c>O </c><c>   4</c></rc>
    <rc><c>O </c><c>   4</c></rc>
    <rc><c>O </c><c>   4</c></rc>
    <rc><c>O </c><c>   4</c></rc>
    <rc><c>O </c><c>   4</c></rc>
    <rc><c>O </c><c>   4</c></rc>
    <rc><c>O </c><c>   4</c></rc>
    <rc><c>O </c><c>   4</c></rc>
    <rc><c>O </c><c>   4</c></rc>
   </set>
  </array>
  <array name="atomtypes" >
   <dimension dim="1">type</dimension>
   <field type="int">atomspertype</field>
   <field type="string">element</field>
   <field>mass</field>
   <field>valence</field>
   <field type="string">pseudopotential</field>
   <set>
    <rc><c>  32</c><c>Sr</c><c>     87.62000000</c><c>     10.00000000</c><c>  PAW_PBE Sr_sv 07Sep2000               </c></rc>
    <rc><c>   8</c><c>Ti</c><c>     47.88000000</c><c>      4.00000000</c><c>  PAW_PBE Ti 08Apr2002                  </c></rc>
    <rc><c>  24</c><c>Fe</c><c>     55.84700000</c><c>      8.00000000</c><c>  PAW_PBE Fe 06Sep2000                  </c></rc>
    <rc><c>  84</c><c>O </c><c>     16.00000000</c><c>      6.00000000</c><c>  PAW_PBE O 08Apr2002                   </c></rc>
   </set>
  </array>
 </atominfo>
 <structure name="initialpos" >
  <crystal>
   <varray name="basis" >
    <v>      11.22645079       0.01890592       0.00994611 </v>
    <v>       0.01836047      11.42392919      -0.00058568 </v>
    <v>       0.01379553      -0.00017423      15.69049051 </v>
   </varray>
   <i name="volume">   2012.30120065 </i>
   <varray name="rec_basis" >
    <v>       0.08907566      -0.00014317      -0.00007832 </v>
    <v>      -0.00014742       0.08753579       0.00000110 </v>
    <v>      -0.00005647       0.00000336       0.06373292 </v>
   </varray>
  </crystal>
  <varray name="positions" >
   <v>       0.99562582       0.24775415       0.11601319 </v>
   <v>       0.00136955       0.25912339       0.61027394 </v>
   <v>       0.99562582       0.74775415       0.11601319 </v>
   <v>       0.00136955       0.75912339       0.61027394 </v>
   <v>       0.50870620       0.25001496       0.12099907 </v>
   <v>       0.49601055       0.25879985       0.60902642 </v>
   <v>       0.50870620       0.75001496       0.12099907 </v>
   <v>       0.49601055       0.75879985       0.60902642 </v>
   <v>       0.99448577       0.24799942       0.38246809 </v>
   <v>       0.00203556       0.25929978       0.88973817 </v>
   <v>       0.99448577       0.74799942       0.38246809 </v>
   <v>       0.00203556       0.75929978       0.88973817 </v>
   <v>       0.51112420       0.25134831       0.37674320 </v>
   <v>       0.49736606       0.25849941       0.89305155 </v>
   <v>       0.51112420       0.75134831       0.37674320 </v>
   <v>       0.49736606       0.75849941       0.89305155 </v>
   <v>       0.25318500       0.00191490       0.11411850 </v>
   <v>       0.25041096       0.98760053       0.61074410 </v>
   <v>       0.25318500       0.50191490       0.11411850 </v>
   <v>       0.25041096       0.48760053       0.61074410 </v>
   <v>       0.75286407       0.00267277       0.11951148 </v>
   <v>       0.74882595       0.99040250       0.60941408 </v>
   <v>       0.75286407       0.50267277       0.11951148 </v>
   <v>       0.74882595       0.49040250       0.60941408 </v>
   <v>       0.25112513       0.00172621       0.38448540 </v>
   <v>       0.25599708       0.98739643       0.89059005 </v>
   <v>       0.25112513       0.50172621       0.38448540 </v>
   <v>       0.25599708       0.48739643       0.89059005 </v>
   <v>       0.75558670       0.00239595       0.37710613 </v>
   <v>       0.74310345       0.99042059       0.89113624 </v>
   <v>       0.75558670       0.50239595       0.37710613 </v>
   <v>       0.74310345       0.49042059       0.89113624 </v>
   <v>       0.00337660       0.50199562       0.49878884 </v>
   <v>       0.00305116       0.00161098       0.00022183 </v>
   <v>       0.50090473       0.50223024       0.49736027 </v>
   <v>       0.75527373       0.24134338       0.24934450 </v>
   <v>       0.50090473       0.00223024       0.49736027 </v>
   <v>       0.00337660       0.00199562       0.49878884 </v>
   <v>       0.00305116       0.50161098       0.00022183 </v>
   <v>       0.75527373       0.74134338       0.24934450 </v>
   <v>       0.50153933       0.50197742       0.00725007 </v>
   <v>       0.50153933       0.00197742       0.00725007 </v>
   <v>       0.52368378       0.99211232       0.24987145 </v>
   <v>       0.25350546       0.74616350       0.00379994 </v>
   <v>       0.73310816       0.71426603       0.74981241 </v>
   <v>       0.75178125       0.24910691       0.50116063 </v>
   <v>       0.25147131       0.24701767       0.49609228 </v>
   <v>       0.25147131       0.74701767       0.49609228 </v>
   <v>       0.48251146       0.03553162       0.74773177 </v>
   <v>       0.25350546       0.24616350       0.00379994 </v>
   <v>       0.74998122       0.74924778       0.99898149 </v>
   <v>       0.25555890       0.28865399       0.25087656 </v>
   <v>       0.23309863       0.21379185       0.74946581 </v>
   <v>       0.25555890       0.78865399       0.25087656 </v>
   <v>       0.23309863       0.71379185       0.74946581 </v>
   <v>       0.75178125       0.74910691       0.50116063 </v>
   <v>       0.73310816       0.21426603       0.74981241 </v>
   <v>       0.74998122       0.24924778       0.99898149 </v>
   <v>       0.99126045       0.98655728       0.24877644 </v>
   <v>       0.98372204       0.03512048       0.75053833 </v>
   <v>       0.99126045       0.48655728       0.24877644 </v>
   <v>       0.98372204       0.53512048       0.75053833 </v>
   <v>       0.52368378       0.49211232       0.24987145 </v>
   <v>       0.48251146       0.53553162       0.74773177 </v>
   <v>       0.00707885       0.01756095       0.12457522 </v>
   <v>       0.01367584       0.97525801       0.64012173 </v>
   <v>       0.00707885       0.51756095       0.12457522 </v>
   <v>       0.01367584       0.47525801       0.64012173 </v>
   <v>       0.48873833       0.02222517       0.13210733 </v>
   <v>       0.50598524       0.97776690       0.63504764 </v>
   <v>       0.48873833       0.52222517       0.13210733 </v>
   <v>       0.50598524       0.47776690       0.63504764 </v>
   <v>       0.00768738       0.01869630       0.37593115 </v>
   <v>       0.01570956       0.97591697       0.85981503 </v>
   <v>       0.00768738       0.51869630       0.37593115 </v>
   <v>       0.01570956       0.47591697       0.85981503 </v>
   <v>       0.49351079       0.02021575       0.37374963 </v>
   <v>       0.51287143       0.96973056       0.85244476 </v>
   <v>       0.49351079       0.52021575       0.37374963 </v>
   <v>       0.51287143       0.46973056       0.85244476 </v>
   <v>       0.24060500       0.21960805       0.36141464 </v>
   <v>       0.26172674       0.27393432       0.85774080 </v>
   <v>       0.24060500       0.71960805       0.36141464 </v>
   <v>       0.26172674       0.77393432       0.85774080 </v>
   <v>       0.75647339       0.23726714       0.37741928 </v>
   <v>       0.76502441       0.27530537       0.85753038 </v>
   <v>       0.75647339       0.73726714       0.37741928 </v>
   <v>       0.76502441       0.77530537       0.85753038 </v>
   <v>       0.23818177       0.21892622       0.14206060 </v>
   <v>       0.26219161       0.27392106       0.64039337 </v>
   <v>       0.23818177       0.71892622       0.14206060 </v>
   <v>       0.26219161       0.77392106       0.64039337 </v>
   <v>       0.75722583       0.23766490       0.12493275 </v>
   <v>       0.76138428       0.27460357       0.63960891 </v>
   <v>       0.75722583       0.73766490       0.12493275 </v>
   <v>       0.76138428       0.77460357       0.63960891 </v>
   <v>       0.15576209       0.42398757       0.25085929 </v>
   <v>       0.40611628       0.35930075       0.25335363 </v>
   <v>       0.65882775       0.39215825       0.25124061 </v>
   <v>       0.90589460       0.34534625       0.25088153 </v>
   <v>       0.15576209       0.92398757       0.25085929 </v>
   <v>       0.40611628       0.85930075       0.25335363 </v>
   <v>       0.65882775       0.89215825       0.25124061 </v>
   <v>       0.90589460       0.84534625       0.25088153 </v>
   <v>       0.12793042       0.12305604       0.51181995 </v>
   <v>       0.37541075       0.12278670       0.50949965 </v>
   <v>       0.62478654       0.12517827       0.51040234 </v>
   <v>       0.87956923       0.12388681       0.51308453 </v>
   <v>       0.12718457       0.37235606       0.49342519 </v>
   <v>       0.37661686       0.37387528       0.49143275 </v>
   <v>       0.62559887       0.37753208       0.49362434 </v>
   <v>       0.87896071       0.37868769       0.49575957 </v>
   <v>       0.12793042       0.62305604       0.51181995 </v>
   <v>       0.37541075       0.62278670       0.50949965 </v>
   <v>       0.62478654       0.62517827       0.51040234 </v>
   <v>       0.87956923       0.62388681       0.51308453 </v>
   <v>       0.12718457       0.87235606       0.49342519 </v>
   <v>       0.37661686       0.87387528       0.49143275 </v>
   <v>       0.62559887       0.87753208       0.49362434 </v>
   <v>       0.87896071       0.87868769       0.49575957 </v>
   <v>       0.06281669       0.18314297       0.74935524 </v>
   <v>       0.31300416       0.06493257       0.74924413 </v>
   <v>       0.56399963       0.18314593       0.74882100 </v>
   <v>       0.81397924       0.06442509       0.74949777 </v>
   <v>       0.06281669       0.68314297       0.74935524 </v>
   <v>       0.31300416       0.56493257       0.74924413 </v>
   <v>       0.56399963       0.68314593       0.74882100 </v>
   <v>       0.81397924       0.56442509       0.74949777 </v>
   <v>       0.12760775       0.12315247       0.98876427 </v>
   <v>       0.37446330       0.12220772       0.99089382 </v>
   <v>       0.62657948       0.12600154       0.99072403 </v>
   <v>       0.88027536       0.12377088       0.98759675 </v>
   <v>       0.12647200       0.37183526       0.00621349 </v>
   <v>       0.37505498       0.37127453       0.00913610 </v>
   <v>       0.62648639       0.37661898       0.00726737 </v>
   <v>       0.87937606       0.37855423       0.00408155 </v>
   <v>       0.12760775       0.62315247       0.98876427 </v>
   <v>       0.37446330       0.62220772       0.99089382 </v>
   <v>       0.62657948       0.62600154       0.99072403 </v>
   <v>       0.88027536       0.62377088       0.98759675 </v>
   <v>       0.12647200       0.87183526       0.00621349 </v>
   <v>       0.37505498       0.87127453       0.00913610 </v>
   <v>       0.62648639       0.87661898       0.00726737 </v>
   <v>       0.87937606       0.87855423       0.00408155 </v>
   <v>       0.61088893       0.14572930       0.25188594 </v>
   <v>       0.86461663       0.10435932       0.25074972 </v>
   <v>       0.61088893       0.64572930       0.25188594 </v>
   <v>       0.86461663       0.60435932       0.25074972 </v>
  </varray>
 </structure>
 <calculation>
  <scstep>
   <time name="dav">  290.12  290.33</time>
   <time name="total">  293.90  294.22</time>
   <energy>
    <i name="alphaZ">   5584.36136236 </i>
    <i name="ewald"> -62841.87680345 </i>
    <i name="hartreedc"> -18749.36234520 </i>
    <i name="XCdc">   3409.43109726 </i>
    <i name="pawpsdc"> 120790.54033238 </i>
    <i name="pawaedc">-120296.34662148 </i>
    <i name="eentropy">     -0.00000000 </i>
    <i name="bandstr">  -7209.65588137 </i>
    <i name="atom">  78316.90445604 </i>
    <i name="e_fr_energy">   -996.00440346 </i>
    <i name="e_wo_entrp">   -996.00440346 </i>
    <i name="e_0_energy">   -996.00440346 </i>
   </energy>
  </scstep>
  <scstep>
   <time name="diag">   33.27   33.30</time>
   <time name="diis">   31.23   31.23</time>
   <time name="orth">   18.97   18.97</time>
   <time name="total">   87.25   87.30</time>
   <energy>
    <i name="e_fr_energy">   -996.00441211 </i>
    <i name="e_wo_entrp">   -996.00441211 </i>
    <i name="e_0_energy">   -996.00441211 </i>
   </energy>
  </scstep>
  <scstep>
   <time name="diag">   33.32   33.34</time>
   <time name="diis">   30.60   30.63</time>
   <time name="orth">   18.96   18.96</time>
   <time name="total">   86.65   86.77</time>
   <energy>
    <i name="e_fr_energy">   -996.00441784 </i>
    <i name="e_wo_entrp">   -996.00441784 </i>
    <i name="e_0_energy">   -996.00441784 </i>
   </energy>
  </scstep>
  <scstep>
   <time name="diag">   33.32   33.33</time>
   <time name="diis">   30.41   30.41</time>
   <time name="orth">   18.95   18.95</time>
   <time name="total">   86.45   86.54</time>
   <energy>
    <i name="e_fr_energy">   -996.00443012 </i>
    <i name="e_wo_entrp">   -996.00443012 </i>
    <i name="e_0_energy">   -996.00443012 </i>
   </energy>
  </scstep>
  <scstep>
   <time name="diag">   33.27   33.28</time>
   <time name="diis">   28.34   28.37</time>
   <time name="orth">   18.93   18.93</time>
   <time name="total">   84.32   84.41</time>
   <energy>
    <i name="e_fr_energy">   -996.00443089 </i>
    <i name="e_wo_entrp">   -996.00443089 </i>
    <i name="e_0_energy">   -996.00443089 </i>
   </energy>
  </scstep>
  <scstep>
   <time name="diag">   33.28   33.31</time>
   <time name="diis">   24.19   24.20</time>
   <time name="orth">   18.94   18.94</time>
   <time name="total">   80.19   80.28</time>
   <energy>
    <i name="e_fr_energy">   -996.00443105 </i>
    <i name="e_wo_entrp">   -996.00443105 </i>
    <i name="e_0_energy">   -996.00443105 </i>
   </energy>
  </scstep>
  <scstep>
   <time name="diag">   33.34   33.34</time>
   <time name="diis">   23.16   23.17</time>
   <time name="orth">   18.89   18.89</time>
   <time name="total">   79.19   79.24</time>
   <energy>
    <i name="e_fr_energy">   -996.00443110 </i>
    <i name="e_wo_entrp">   -996.00443110 </i>
    <i name="e_0_energy">   -996.00443110 </i>
   </energy>
  </scstep>
  <scstep>
   <time name="diag">   33.33   33.35</time>
   <time name="diis">   22.86   22.87</time>
   <time name="orth">   18.89   18.89</time>
   <time name="total">   75.65   75.72</time>
   <energy>
    <i name="alphaZ">   5584.36136236 </i>
    <i name="ewald"> -62841.87680345 </i>
    <i name="hartreedc"> -18749.32215277 </i>
    <i name="XCdc">   3409.42663843 </i>
    <i name="pawpsdc"> 120776.58999364 </i>
    <i name="pawaedc">-120282.37019711 </i>
    <i name="eentropy">     -0.00000000 </i>
    <i name="bandstr">  -7209.71772827 </i>
    <i name="atom">  78316.90445604 </i>
    <i name="e_fr_energy">   -996.00443111 </i>
    <i name="e_wo_entrp">   -996.00443111 </i>
    <i name="e_0_energy">   -996.00443111 </i>
   </energy>
  </scstep>
  <structure>
   <crystal>
    <varray name="basis" >
     <v>      11.22645079       0.01890592       0.00994611 </v>
     <v>       0.01836047      11.42392919      -0.00058568 </v>
     <v>       0.01379553      -0.00017423      15.69049051 </v>
    </varray>
    <i name="volume">   2012.30120065 </i>
    <varray name="rec_basis" >
     <v>       0.08907566      -0.00014317      -0.00007832 </v>
     <v>      -0.00014742       0.08753579       0.00000110 </v>
     <v>      -0.00005647       0.00000336       0.06373292 </v>
    </varray>
   </crystal>
   <varray name="positions" >
    <v>       0.99562582       0.24775415       0.11601319 </v>
    <v>       0.00136955       0.25912339       0.61027394 </v>
    <v>       0.99562582       0.74775415       0.11601319 </v>
    <v>       0.00136955       0.75912339       0.61027394 </v>
    <v>       0.50870620       0.25001496       0.12099907 </v>
    <v>       0.49601055       0.25879985       0.60902642 </v>
    <v>       0.50870620       0.75001496       0.12099907 </v>
    <v>       0.49601055       0.75879985       0.60902642 </v>
    <v>       0.99448577       0.24799942       0.38246809 </v>
    <v>       0.00203556       0.25929978       0.88973817 </v>
    <v>       0.99448577       0.74799942       0.38246809 </v>
    <v>       0.00203556       0.75929978       0.88973817 </v>
    <v>       0.51112420       0.25134831       0.37674320 </v>
    <v>       0.49736606       0.25849941       0.89305155 </v>
    <v>       0.51112420       0.75134831       0.37674320 </v>
    <v>       0.49736606       0.75849941       0.89305155 </v>
    <v>       0.25318500       0.00191490       0.11411850 </v>
    <v>       0.25041096       0.98760053       0.61074410 </v>
    <v>       0.25318500       0.50191490       0.11411850 </v>
    <v>       0.25041096       0.48760053       0.61074410 </v>
    <v>       0.75286407       0.00267277       0.11951148 </v>
    <v>       0.74882595       0.99040250       0.60941408 </v>
    <v>       0.75286407       0.50267277       0.11951148 </v>
    <v>       0.74882595       0.49040250       0.60941408 </v>
    <v>       0.25112513       0.00172621       0.38448540 </v>
    <v>       0.25599708       0.98739643       0.89059005 </v>
    <v>       0.25112513       0.50172621       0.38448540 </v>
    <v>       0.25599708       0.48739643       0.89059005 </v>
    <v>       0.75558670       0.00239595       0.37710613 </v>
    <v>       0.74310345       0.99042059       0.89113624 </v>
    <v>       0.75558670       0.50239595       0.37710613 </v>
    <v>       0.74310345       0.49042059       0.89113624 </v>
    <v>       0.00337660       0.50199562       0.49878884 </v>
    <v>       0.00305116       0.00161098       0.00022183 </v>
    <v>       0.50090473       0.50223024       0.49736027 </v>
    <v>       0.75527373       0.24134338       0.24934450 </v>
    <v>       0.50090473       0.00223024       0.49736027 </v>
    <v>       0.00337660       0.00199562       0.49878884 </v>
    <v>       0.00305116       0.50161098       0.00022183 </v>
    <v>       0.75527373       0.74134338       0.24934450 </v>
    <v>       0.50153933       0.50197742       0.00725007 </v>
    <v>       0.50153933       0.00197742       0.00725007 </v>
    <v>       0.52368378       0.99211232       0.24987145 </v>
    <v>       0.25350546       0.74616350       0.00379994 </v>
    <v>       0.73310816       0.71426603       0.74981241 </v>
    <v>       0.75178125       0.24910691       0.50116063 </v>
    <v>       0.25147131       0.24701767       0.49609228 </v>
    <v>       0.25147131       0.74701767       0.49609228 </v>
    <v>       0.48251146       0.03553162       0.74773177 </v>
    <v>       0.25350546       0.24616350       0.00379994 </v>
    <v>       0.74998122       0.74924778       0.99898149 </v>
    <v>       0.25555890       0.28865399       0.25087656 </v>
    <v>       0.23309863       0.21379185       0.74946581 </v>
    <v>       0.25555890       0.78865399       0.25087656 </v>
    <v>       0.23309863       0.71379185       0.74946581 </v>
    <v>       0.75178125       0.74910691       0.50116063 </v>
    <v>       0.73310816       0.21426603       0.74981241 </v>
    <v>       0.74998122       0.24924778       0.99898149 </v>
    <v>       0.99126045       0.98655728       0.24877644 </v>
    <v>       0.98372204       0.03512048       0.75053833 </v>
    <v>       0.99126045       0.48655728       0.24877644 </v>
    <v>       0.98372204       0.53512048       0.75053833 </v>
    <v>       0.52368378       0.49211232       0.24987145 </v>
    <v>       0.48251146       0.53553162       0.74773177 </v>
    <v>       0.00707885       0.01756095       0.12457522 </v>
    <v>       0.01367584       0.97525801       0.64012173 </v>
    <v>       0.00707885       0.51756095       0.12457522 </v>
    <v>       0.01367584       0.47525801       0.64012173 </v>
    <v>       0.48873833       0.02222517       0.13210733 </v>
    <v>       0.50598524       0.97776690       0.63504764 </v>
    <v>       0.48873833       0.52222517       0.13210733 </v>
    <v>       0.50598524       0.47776690       0.63504764 </v>
    <v>       0.00768738       0.01869630       0.37593115 </v>
    <v>       0.01570956       0.97591697       0.85981503 </v>
    <v>       0.00768738       0.51869630       0.37593115 </v>
    <v>       0.01570956       0.47591697       0.85981503 </v>
    <v>       0.49351079       0.02021575       0.37374963 </v>
    <v>       0.51287143       0.96973056       0.85244476 </v>
    <v>       0.49351079       0.52021575       0.37374963 </v>
    <v>       0.51287143       0.46973056       0.85244476 </v>
    <v>       0.24060500       0.21960805       0.36141464 </v>
    <v>       0.26172674       0.27393432       0.85774080 </v>
    <v>       0.24060500       0.71960805       0.36141464 </v>
    <v>       0.26172674       0.77393432       0.85774080 </v>
    <v>       0.75647339       0.23726714       0.37741928 </v>
    <v>       0.76502441       0.27530537       0.85753038 </v>
    <v>       0.75647339       0.73726714       0.37741928 </v>
    <v>       0.76502441       0.77530537       0.85753038 </v>
    <v>       0.23818177       0.21892622       0.14206060 </v>
    <v>       0.26219161       0.27392106       0.64039337 </v>
    <v>       0.23818177       0.71892622       0.14206060 </v>
    <v>       0.26219161       0.77392106       0.64039337 </v>
    <v>       0.75722583       0.23766490       0.12493275 </v>
    <v>       0.76138428       0.27460357       0.63960891 </v>
    <v>       0.75722583       0.73766490       0.12493275 </v>
    <v>       0.76138428       0.77460357       0.63960891 </v>
    <v>       0.15576209       0.42398757       0.25085929 </v>
    <v>       0.40611628       0.35930075       0.25335363 </v>
    <v>       0.65882775       0.39215825       0.25124061 </v>
    <v>       0.90589460       0.34534625       0.25088153 </v>
    <v>       0.15576209       0.92398757       0.25085929 </v>
    <v>       0.40611628       0.85930075       0.25335363 </v>
    <v>       0.65882775       0.89215825       0.25124061 </v>
    <v>       0.90589460       0.84534625       0.25088153 </v>
    <v>       0.12793042       0.12305604       0.51181995 </v>
    <v>       0.37541075       0.12278670       0.50949965 </v>
    <v>       0.62478654       0.12517827       0.51040234 </v>
    <v>       0.87956923       0.12388681       0.51308453 </v>
    <v>       0.12718457       0.37235606       0.49342519 </v>
    <v>       0.37661686       0.37387528       0.49143275 </v>
    <v>       0.62559887       0.37753208       0.49362434 </v>
    <v>       0.87896071       0.37868769       0.49575957 </v>
    <v>       0.12793042       0.62305604       0.51181995 </v>
    <v>       0.37541075       0.62278670       0.50949965 </v>
    <v>       0.62478654       0.62517827       0.51040234 </v>
    <v>       0.87956923       0.62388681       0.51308453 </v>
    <v>       0.12718457       0.87235606       0.49342519 </v>
    <v>       0.37661686       0.87387528       0.49143275 </v>
    <v>       0.62559887       0.87753208       0.49362434 </v>
    <v>       0.87896071       0.87868769       0.49575957 </v>
    <v>       0.06281669       0.18314297       0.74935524 </v>
    <v>       0.31300416       0.06493257       0.74924413 </v>
    <v>       0.56399963       0.18314593       0.74882100 </v>
    <v>       0.81397924       0.06442509       0.74949777 </v>
    <v>       0.06281669       0.68314297       0.74935524 </v>
    <v>       0.31300416       0.56493257       0.74924413 </v>
    <v>       0.56399963       0.68314593       0.74882100 </v>
    <v>       0.81397924       0.56442509       0.74949777 </v>
    <v>       0.12760775       0.12315247       0.98876427 </v>
    <v>       0.37446330       0.12220772       0.99089382 </v>
    <v>       0.62657948       0.12600154       0.99072403 </v>
    <v>       0.88027536       0.12377088       0.98759675 </v>
    <v>       0.12647200       0.37183526       0.00621349 </v>
    <v>       0.37505498       0.37127453       0.00913610 </v>
    <v>       0.62648639       0.37661898       0.00726737 </v>
    <v>       0.87937606       0.37855423       0.00408155 </v>
    <v>       0.12760775       0.62315247       0.98876427 </v>
    <v>       0.37446330       0.62220772       0.99089382 </v>
    <v>       0.62657948       0.62600154       0.99072403 </v>
    <v>       0.88027536       0.62377088       0.98759675 </v>
    <v>       0.12647200       0.87183526       0.00621349 </v>
    <v>       0.37505498       0.87127453       0.00913610 </v>
    <v>       0.62648639       0.87661898       0.00726737 </v>
    <v>       0.87937606       0.87855423       0.00408155 </v>
    <v>       0.61088893       0.14572930       0.25188594 </v>
    <v>       0.86461663       0.10435932       0.25074972 </v>
    <v>       0.61088893       0.64572930       0.25188594 </v>
    <v>       0.86461663       0.60435932       0.25074972 </v>
   </varray>
  </structure>
  <varray name="forces" >
   <v>       0.03430686      -0.03353897      -0.03413308 </v>
   <v>      -0.04660595      -0.02333084      -0.01481141 </v>
   <v>       0.03430686      -0.03353897      -0.03413308 </v>
   <v>      -0.04660595      -0.02333084      -0.01481141 </v>
   <v>       0.02033669      -0.02975944      -0.01687459 </v>
   <v>       0.06841436      -0.02576182      -0.03409587 </v>
   <v>       0.02033669      -0.02975944      -0.01687459 </v>
   <v>       0.06841436      -0.02576182      -0.03409587 </v>
   <v>       0.00280819      -0.03963884       0.03326668 </v>
   <v>      -0.00450196      -0.02217939       0.04566026 </v>
   <v>       0.00280819      -0.03963884       0.03326668 </v>
   <v>      -0.00450196      -0.02217939       0.04566026 </v>
   <v>       0.06398159      -0.00073026       0.04893232 </v>
   <v>       0.03404944      -0.05011107       0.01460869 </v>
   <v>       0.06398159      -0.00073026       0.04893232 </v>
   <v>       0.03404944      -0.05011107       0.01460869 </v>
   <v>      -0.00525321      -0.01366136      -0.02836882 </v>
   <v>       0.02697235       0.06051350      -0.01494863 </v>
   <v>      -0.00525321      -0.01366136      -0.02836882 </v>
   <v>       0.02697235       0.06051350      -0.01494863 </v>
   <v>       0.02264447      -0.01358352       0.01075716 </v>
   <v>       0.00227459       0.04129835      -0.01561797 </v>
   <v>       0.02264447      -0.01358352       0.01075716 </v>
   <v>       0.00227459       0.04129835      -0.01561797 </v>
   <v>       0.02036716       0.00576001      -0.00653929 </v>
   <v>       0.00671164       0.06279319       0.06528768 </v>
   <v>       0.02036716       0.00576001      -0.00653929 </v>
   <v>       0.00671164       0.06279319       0.06528768 </v>
   <v>       0.02592704      -0.00691766       0.03151892 </v>
   <v>       0.02138531       0.04351655      -0.02772355 </v>
   <v>       0.02592704      -0.00691766       0.03151892 </v>
   <v>       0.02138531       0.04351655      -0.02772355 </v>
   <v>      -0.17221100      -0.05309764      -0.01177161 </v>
   <v>       0.05797153      -0.05345610       0.02696782 </v>
   <v>       0.16745266      -0.03658396      -0.06876941 </v>
   <v>       0.05920614       0.02948938       0.12576980 </v>
   <v>       0.16745266      -0.03658396      -0.06876941 </v>
   <v>      -0.17221100      -0.05309764      -0.01177161 </v>
   <v>       0.05797153      -0.05345610       0.02696782 </v>
   <v>       0.05920614       0.02948938       0.12576980 </v>
   <v>      -0.03972304      -0.00201930       0.04543040 </v>
   <v>      -0.03972304      -0.00201930       0.04543040 </v>
   <v>       0.03684920      -0.01053267       0.07076457 </v>
   <v>      -0.02444778       0.03903355      -0.01266580 </v>
   <v>       0.03343035       0.00946930      -0.08880771 </v>
   <v>      -0.03798237       0.04116918      -0.00465239 </v>
   <v>       0.05778595       0.00555663      -0.01394506 </v>
   <v>       0.05778595       0.00555663      -0.01394506 </v>
   <v>       0.00906440      -0.03750313      -0.08864972 </v>
   <v>      -0.02444778       0.03903355      -0.01266580 </v>
   <v>       0.01201958       0.01006271       0.02988399 </v>
   <v>       0.02031619       0.04604938      -0.04646094 </v>
   <v>       0.02300609      -0.00667864       0.11859041 </v>
   <v>       0.02031619       0.04604938      -0.04646094 </v>
   <v>       0.02300609      -0.00667864       0.11859041 </v>
   <v>      -0.03798237       0.04116918      -0.00465239 </v>
   <v>       0.03343035       0.00946930      -0.08880771 </v>
   <v>       0.01201958       0.01006271       0.02988399 </v>
   <v>       0.01931850       0.00676593       0.01494990 </v>
   <v>      -0.07618655      -0.07184689      -0.01333401 </v>
   <v>       0.01931850       0.00676593       0.01494990 </v>
   <v>      -0.07618655      -0.07184689      -0.01333401 </v>
   <v>       0.03684920      -0.01053267       0.07076457 </v>
   <v>       0.00906440      -0.03750313      -0.08864972 </v>
   <v>      -0.02001081      -0.00688407      -0.00853865 </v>
   <v>      -0.02847898       0.02485965      -0.01470971 </v>
   <v>      -0.02001081      -0.00688407      -0.00853865 </v>
   <v>      -0.02847898       0.02485965      -0.01470971 </v>
   <v>       0.02396301      -0.00143142       0.02578034 </v>
   <v>      -0.05143124       0.01383847      -0.00634291 </v>
   <v>       0.02396301      -0.00143142       0.02578034 </v>
   <v>      -0.05143124       0.01383847      -0.00634291 </v>
   <v>      -0.00167123      -0.01055375      -0.02215123 </v>
   <v>      -0.05196320       0.03157330      -0.00098951 </v>
   <v>      -0.00167123      -0.01055375      -0.02215123 </v>
   <v>      -0.05196320       0.03157330      -0.00098951 </v>
   <v>       0.01342423      -0.00717590      -0.11851162 </v>
   <v>      -0.04220645      -0.01823526       0.08751306 </v>
   <v>       0.01342423      -0.00717590      -0.11851162 </v>
   <v>      -0.04220645      -0.01823526       0.08751306 </v>
   <v>      -0.04602967       0.02114608      -0.02447055 </v>
   <v>      -0.03668838      -0.00577022      -0.04167566 </v>
   <v>      -0.04602967       0.02114608      -0.02447055 </v>
   <v>      -0.03668838      -0.00577022      -0.04167566 </v>
   <v>       0.04477544       0.07476411      -0.07427484 </v>
   <v>      -0.07413562       0.00856048       0.06366939 </v>
   <v>       0.04477544       0.07476411      -0.07427484 </v>
   <v>      -0.07413562       0.00856048       0.06366939 </v>
   <v>      -0.00678674       0.07159328       0.07355005 </v>
   <v>      -0.02745556       0.02720593      -0.06637142 </v>
   <v>      -0.00678674       0.07159328       0.07355005 </v>
   <v>      -0.02745556       0.02720593      -0.06637142 </v>
   <v>       0.03115464       0.06136867      -0.09080367 </v>
   <v>      -0.04693438      -0.00417852       0.05413677 </v>
   <v>       0.03115464       0.06136867      -0.09080367 </v>
   <v>      -0.04693438      -0.00417852       0.05413677 </v>
   <v>       0.10089576       0.00938760      -0.00659144 </v>
   <v>      -0.02932185      -0.07274442      -0.01049206 </v>
   <v>       0.00203181       0.00286623      -0.03003530 </v>
   <v>       0.06212418      -0.05757187       0.00126273 </v>
   <v>       0.10089576       0.00938760      -0.00659144 </v>
   <v>      -0.02932185      -0.07274442      -0.01049206 </v>
   <v>       0.00203181       0.00286623      -0.03003530 </v>
   <v>       0.06212418      -0.05757187       0.00126273 </v>
   <v>       0.02904313       0.04022776       0.01319942 </v>
   <v>      -0.10191964       0.08632778       0.02374981 </v>
   <v>       0.00317037      -0.01755012       0.01103689 </v>
   <v>       0.05005784      -0.04208797      -0.01461480 </v>
   <v>      -0.01449138      -0.02629772       0.01069434 </v>
   <v>      -0.12006502      -0.03550301      -0.01278728 </v>
   <v>      -0.06622015      -0.01797857       0.01931869 </v>
   <v>       0.06194732       0.05756091       0.03249525 </v>
   <v>       0.02904313       0.04022776       0.01319942 </v>
   <v>      -0.10191964       0.08632778       0.02374981 </v>
   <v>       0.00317037      -0.01755012       0.01103689 </v>
   <v>       0.05005784      -0.04208797      -0.01461480 </v>
   <v>      -0.01449138      -0.02629772       0.01069434 </v>
   <v>      -0.12006502      -0.03550301      -0.01278728 </v>
   <v>      -0.06622015      -0.01797857       0.01931869 </v>
   <v>       0.06194732       0.05756091       0.03249525 </v>
   <v>      -0.01379750      -0.00313323      -0.01084477 </v>
   <v>      -0.02987297       0.00424739       0.00039829 </v>
   <v>      -0.04095970      -0.00656875       0.04158431 </v>
   <v>       0.03338201       0.04418665       0.03862803 </v>
   <v>      -0.01379750      -0.00313323      -0.01084477 </v>
   <v>      -0.02987297       0.00424739       0.00039829 </v>
   <v>      -0.04095970      -0.00656875       0.04158431 </v>
   <v>       0.03338201       0.04418665       0.03862803 </v>
   <v>      -0.00501746       0.00493797      -0.00274947 </v>
   <v>       0.02308936      -0.00541512      -0.02166695 </v>
   <v>       0.00782766      -0.02270281       0.00458041 </v>
   <v>      -0.06694419       0.04526494      -0.00254236 </v>
   <v>      -0.01272051      -0.00851845      -0.00759959 </v>
   <v>       0.01446682       0.04802584       0.02551731 </v>
   <v>      -0.02851516      -0.02998908      -0.00147358 </v>
   <v>      -0.06553594      -0.02505989      -0.05310359 </v>
   <v>      -0.00501746       0.00493797      -0.00274947 </v>
   <v>       0.02308936      -0.00541512      -0.02166695 </v>
   <v>       0.00782766      -0.02270281       0.00458041 </v>
   <v>      -0.06694419       0.04526494      -0.00254236 </v>
   <v>      -0.01272051      -0.00851845      -0.00759959 </v>
   <v>       0.01446682       0.04802584       0.02551731 </v>
   <v>      -0.02851516      -0.02998908      -0.00147358 </v>
   <v>      -0.06553594      -0.02505989      -0.05310359 </v>
   <v>      -0.05575100      -0.08369486      -0.02455513 </v>
   <v>       0.14388274      -0.03944424       0.00056228 </v>
   <v>      -0.05575100      -0.08369486      -0.02455513 </v>
   <v>       0.14388274      -0.03944424       0.00056228 </v>
  </varray>
  <varray name="stress" >
   <v>      -1.33618858       0.49950102       0.08537417 </v>
   <v>       0.49950101      -0.43692619      -0.34627935 </v>
   <v>       0.08537419      -0.34627951       2.03051601 </v>
  </varray>
  <energy>
   <i name="e_fr_energy">   -996.00443111 </i>
   <i name="e_wo_entrp">   -996.00443111 </i>
   <i name="e_0_energy">     -0.00000000 </i>
  </energy>
  <time name="totalsc"> 1026.39 1028.66</time>
 </calculation>
 <calculation>
  <scstep>
   <time name="dav">  283.91  283.98</time>
   <time name="total">  287.69  287.80</time>
   <energy>
    <i name="alphaZ">   5583.77611361 </i>
    <i name="ewald"> -62831.12349137 </i>
    <i name="hartreedc"> -18757.10542272 </i>
    <i name="XCdc">   3409.32125068 </i>
    <i name="pawpsdc"> 120776.56838306 </i>
    <i name="pawaedc">-120282.34819574 </i>
    <i name="eentropy">     -0.00000000 </i>
    <i name="bandstr">  -7211.98675598 </i>
    <i name="atom">  78316.90445604 </i>
    <i name="e_fr_energy">   -995.99366240 </i>
    <i name="e_wo_entrp">   -995.99366240 </i>
    <i name="e_0_energy">   -995.99366240 </i>
   </energy>
  </scstep>
  <scstep>
   <time name="diag">   33.30   33.31</time>
   <time name="diis">   53.05   53.05</time>
   <time name="orth">   18.93   18.93</time>
   <time name="total">  109.04  109.10</time>
   <energy>
    <i name="e_fr_energy">   -996.02295679 </i>
    <i name="e_wo_entrp">   -996.02295679 </i>
    <i name="e_0_energy">   -996.02295679 </i>
   </energy>
  </scstep>
  <scstep>
   <time name="diag">   33.27   33.27</time>
   <time name="diis">   56.08   56.10</time>
   <time name="orth">   18.95   18.95</time>
   <time name="total">  112.07  112.14</time>
   <energy>
    <i name="e_fr_energy">   -996.02533070 </i>
    <i name="e_wo_entrp">   -996.02533070 </i>
    <i name="e_0_energy">   -996.02533070 </i>
   </energy>
  </scstep>
  <scstep>
   <time name="diag">   33.29   33.29</time>
   <time name="diis">   55.01   55.03</time>
   <time name="orth">   18.97   18.97</time>
   <time name="total">  111.03  111.10</time>
   <energy>
    <i name="e_fr_energy">   -996.02292815 </i>
    <i name="e_wo_entrp">   -996.02292815 </i>
    <i name="e_0_energy">   -996.02292815 </i>
   </energy>
  </scstep>
  <scstep>
   <time name="diag">   33.29   33.29</time>
   <time name="diis">   52.57   52.59</time>
   <time name="orth">   18.94   18.94</time>
   <time name="total">  108.57  108.62</time>
   <energy>
    <i name="e_fr_energy">   -996.02198129 </i>
    <i name="e_wo_entrp">   -996.02198129 </i>
    <i name="e_0_energy">   -996.02198129 </i>
   </energy>
  </scstep>
  <scstep>
   <time name="diag">   33.27   33.29</time>
   <time name="diis">   37.58   37.61</time>
   <time name="orth">   18.95   18.98</time>
   <time name="total">   93.59   93.69</time>
   <energy>
    <i name="e_fr_energy">   -996.02196422 </i>
    <i name="e_wo_entrp">   -996.02196422 </i>
    <i name="e_0_energy">   -996.02196422 </i>
   </energy>
  </scstep>
  <scstep>
   <time name="diag">   33.29   33.29</time>
   <time name="diis">   33.86   33.86</time>
   <time name="orth">   18.93   18.93</time>
   <time name="total">   89.81   89.88</time>
   <energy>
    <i name="e_fr_energy">   -996.02196583 </i>
    <i name="e_wo_entrp">   -996.02196583 </i>
    <i name="e_0_energy">   -996.02196583 </i>
   </energy>
  </scstep>
  <scstep>
   <time name="diag">   33.25   33.26</time>
   <time name="diis">   32.85   32.88</time>
   <time name="orth">   18.88   18.88</time>
   <time name="total">   85.57   85.64</time>
   <energy>
    <i name="alphaZ">   5583.77611361 </i>
    <i name="ewald"> -62831.12349137 </i>
    <i name="hartreedc"> -18758.36343265 </i>
    <i name="XCdc">   3409.39372574 </i>
    <i name="pawpsdc"> 120717.99406434 </i>
    <i name="pawaedc">-120223.82286967 </i>
    <i name="eentropy">     -0.00000000 </i>
    <i name="bandstr">  -7210.78053228 </i>
    <i name="atom">  78316.90445604 </i>
    <i name="e_fr_energy">   -996.02196622 </i>
    <i name="e_wo_entrp">   -996.02196622 </i>
    <i name="e_0_energy">   -996.02196622 </i>
   </energy>
  </scstep>
  <structure>
   <crystal>
    <varray name="basis" >
     <v>      11.22031368       0.02119691       0.01034409 </v>
     <v>       0.02068658      11.42188953      -0.00220507 </v>
     <v>       0.01433637      -0.00239579      15.70353454 </v>
    </varray>
    <i name="volume">   2012.51211469 </i>
    <varray name="rec_basis" >
     <v>       0.08912445      -0.00016143      -0.00008139 </v>
     <v>      -0.00016541       0.08755149       0.00001351 </v>
     <v>      -0.00005873       0.00001240       0.06367999 </v>
    </varray>
   </crystal>
   <varray name="positions" >
    <v>       0.99577360       0.24761227       0.11590815 </v>
    <v>       0.00116949       0.25902520       0.61022853 </v>
    <v>       0.99577360       0.74761227       0.11590815 </v>
    <v>       0.00116949       0.75902520       0.61022853 </v>
    <v>       0.50879386       0.24988914       0.12094712 </v>
    <v>       0.49630485       0.25869057       0.60892140 </v>
    <v>       0.50879386       0.74988914       0.12094712 </v>
    <v>       0.49630485       0.75869057       0.60892140 </v>
    <v>       0.99449799       0.24783201       0.38257036 </v>
    <v>       0.00201620       0.25920615       0.88987857 </v>
    <v>       0.99449799       0.74783201       0.38257036 </v>
    <v>       0.00201620       0.75920615       0.88987857 </v>
    <v>       0.51139897       0.25134477       0.37689348 </v>
    <v>       0.49751267       0.25828755       0.89309636 </v>
    <v>       0.51139897       0.75134477       0.37689348 </v>
    <v>       0.49751267       0.75828755       0.89309636 </v>
    <v>       0.25316263       0.00185724       0.11403129 </v>
    <v>       0.25052651       0.98785588       0.61069808 </v>
    <v>       0.25316263       0.50185724       0.11403129 </v>
    <v>       0.25052651       0.48785588       0.61069808 </v>
    <v>       0.75296143       0.00261525       0.11954449 </v>
    <v>       0.74883550       0.99057688       0.60936606 </v>
    <v>       0.75296143       0.50261525       0.11954449 </v>
    <v>       0.74883550       0.49057688       0.60936606 </v>
    <v>       0.25121264       0.00175039       0.38446524 </v>
    <v>       0.25602524       0.98766156       0.89079077 </v>
    <v>       0.25121264       0.50175039       0.38446524 </v>
    <v>       0.25602524       0.48766156       0.89079077 </v>
    <v>       0.75569804       0.00236655       0.37720296 </v>
    <v>       0.74319515       0.99060420       0.89105095 </v>
    <v>       0.75569804       0.50236655       0.37720296 </v>
    <v>       0.74319515       0.49060420       0.89105095 </v>
    <v>       0.00263698       0.50177262       0.49875311 </v>
    <v>       0.00330055       0.00138482       0.00030458 </v>
    <v>       0.50162483       0.50207455       0.49714836 </v>
    <v>       0.75552748       0.24146750       0.24973104 </v>
    <v>       0.50162483       0.00207455       0.49714836 </v>
    <v>       0.00263698       0.00177262       0.49875311 </v>
    <v>       0.00330055       0.50138482       0.00030458 </v>
    <v>       0.75552748       0.74146750       0.24973104 </v>
    <v>       0.50136847       0.50196918       0.00738986 </v>
    <v>       0.50136847       0.00196918       0.00738986 </v>
    <v>       0.52384193       0.99206758       0.25008893 </v>
    <v>       0.25340018       0.74632851       0.00376107 </v>
    <v>       0.73325209       0.71430577       0.74953927 </v>
    <v>       0.75161777       0.24928104       0.50114644 </v>
    <v>       0.25171965       0.24704072       0.49604924 </v>
    <v>       0.25171965       0.74704072       0.49604924 </v>
    <v>       0.48255100       0.03537318       0.74745917 </v>
    <v>       0.25340018       0.24632851       0.00376107 </v>
    <v>       0.75003268       0.74929019       0.99907334 </v>
    <v>       0.25564606       0.28884830       0.25073366 </v>
    <v>       0.23319709       0.21376349       0.74983037 </v>
    <v>       0.25564606       0.78884830       0.25073366 </v>
    <v>       0.23319709       0.71376349       0.74983037 </v>
    <v>       0.75161777       0.74928104       0.50114644 </v>
    <v>       0.73325209       0.21430577       0.74953927 </v>
    <v>       0.75003268       0.24929019       0.99907334 </v>
    <v>       0.99134337       0.98658571       0.24882235 </v>
    <v>       0.98339520       0.03481761       0.75049753 </v>
    <v>       0.99134337       0.48658571       0.24882235 </v>
    <v>       0.98339520       0.53481761       0.75049753 </v>
    <v>       0.52384193       0.49206758       0.25008893 </v>
    <v>       0.48255100       0.53537318       0.74745917 </v>
    <v>       0.00699293       0.01753202       0.12454902 </v>
    <v>       0.01355334       0.97536320       0.64007658 </v>
    <v>       0.00699293       0.51753202       0.12454902 </v>
    <v>       0.01355334       0.47536320       0.64007658 </v>
    <v>       0.48884121       0.02221896       0.13218653 </v>
    <v>       0.50576416       0.97782571       0.63502828 </v>
    <v>       0.48884121       0.52221896       0.13218653 </v>
    <v>       0.50576416       0.47782571       0.63502828 </v>
    <v>       0.00768035       0.01865175       0.37586305 </v>
    <v>       0.01548605       0.97605067       0.85981213 </v>
    <v>       0.00768035       0.51865175       0.37586305 </v>
    <v>       0.01548605       0.47605067       0.85981213 </v>
    <v>       0.49356897       0.02018534       0.37338521 </v>
    <v>       0.51268985       0.96965386       0.85271395 </v>
    <v>       0.49356897       0.52018534       0.37338521 </v>
    <v>       0.51268985       0.46965386       0.85271395 </v>
    <v>       0.24040715       0.21969767       0.36133953 </v>
    <v>       0.26156927       0.27391021       0.85761276 </v>
    <v>       0.24040715       0.71969767       0.36133953 </v>
    <v>       0.26156927       0.77391021       0.85761276 </v>
    <v>       0.75666557       0.23758254       0.37719080 </v>
    <v>       0.76470553       0.27534205       0.85772634 </v>
    <v>       0.75666557       0.73758254       0.37719080 </v>
    <v>       0.76470553       0.77534205       0.85772634 </v>
    <v>       0.23815184       0.21922861       0.14228677 </v>
    <v>       0.26207369       0.27403615       0.64018938 </v>
    <v>       0.23815184       0.71922861       0.14228677 </v>
    <v>       0.26207369       0.77403615       0.64018938 </v>
    <v>       0.75735963       0.23792383       0.12465348 </v>
    <v>       0.76118241       0.27458627       0.63977549 </v>
    <v>       0.75735963       0.73792383       0.12465348 </v>
    <v>       0.76118241       0.77458627       0.63977549 </v>
    <v>       0.15619563       0.42402650       0.25083875 </v>
    <v>       0.40599082       0.35899376       0.25332143 </v>
    <v>       0.65883658       0.39217034       0.25114826 </v>
    <v>       0.90616196       0.34510268       0.25088523 </v>
    <v>       0.15619563       0.92402650       0.25083875 </v>
    <v>       0.40599082       0.85899376       0.25332143 </v>
    <v>       0.65883658       0.89217034       0.25114826 </v>
    <v>       0.90616196       0.84510268       0.25088523 </v>
    <v>       0.12805489       0.12322571       0.51186046 </v>
    <v>       0.37497209       0.12315198       0.50957296 </v>
    <v>       0.62480024       0.12510413       0.51043626 </v>
    <v>       0.87978469       0.12370872       0.51303945 </v>
    <v>       0.12712244       0.37224511       0.49345811 </v>
    <v>       0.37610121       0.37372621       0.49139375 </v>
    <v>       0.62531436       0.37745663       0.49368392 </v>
    <v>       0.87922639       0.37893033       0.49585932 </v>
    <v>       0.12805489       0.62322571       0.51186046 </v>
    <v>       0.37497209       0.62315198       0.50957296 </v>
    <v>       0.62480024       0.62510413       0.51043626 </v>
    <v>       0.87978469       0.62370872       0.51303945 </v>
    <v>       0.12712244       0.87224511       0.49345811 </v>
    <v>       0.37610121       0.87372621       0.49139375 </v>
    <v>       0.62531436       0.87745663       0.49368392 </v>
    <v>       0.87922639       0.87893033       0.49585932 </v>
    <v>       0.06275746       0.18312983       0.74932194 </v>
    <v>       0.31287576       0.06495072       0.74924544 </v>
    <v>       0.56382351       0.18311848       0.74894897 </v>
    <v>       0.81412224       0.06461145       0.74961645 </v>
    <v>       0.06275746       0.68312983       0.74932194 </v>
    <v>       0.31287576       0.56495072       0.74924544 </v>
    <v>       0.56382351       0.68311848       0.74894897 </v>
    <v>       0.81412224       0.56461145       0.74961645 </v>
    <v>       0.12758616       0.12317335       0.98875583 </v>
    <v>       0.37456264       0.12218468       0.99082714 </v>
    <v>       0.62661326       0.12590562       0.99073809 </v>
    <v>       0.87998738       0.12396251       0.98758912 </v>
    <v>       0.12641743       0.37179938       0.00619016 </v>
    <v>       0.37511672       0.37147724       0.00921452 </v>
    <v>       0.62636407       0.37649254       0.00726291 </v>
    <v>       0.87909481       0.37844887       0.00391845 </v>
    <v>       0.12758616       0.62317335       0.98875583 </v>
    <v>       0.37456264       0.62218468       0.99082714 </v>
    <v>       0.62661326       0.62590562       0.99073809 </v>
    <v>       0.87998738       0.62396251       0.98758912 </v>
    <v>       0.12641743       0.87179938       0.00619016 </v>
    <v>       0.37511672       0.87147724       0.00921452 </v>
    <v>       0.62636407       0.87649254       0.00726291 </v>
    <v>       0.87909481       0.87844887       0.00391845 </v>
    <v>       0.61065002       0.14537626       0.25181058 </v>
    <v>       0.86523520       0.10419172       0.25075105 </v>
    <v>       0.61065002       0.64537626       0.25181058 </v>
    <v>       0.86523520       0.60419172       0.25075105 </v>
   </varray>
  </structure>
  <varray name="forces" >
   <v>       0.01262022      -0.03907408      -0.02488086 </v>
   <v>       0.04920811      -0.03239873       0.01168683 </v>
   <v>       0.01262022      -0.03907408      -0.02488086 </v>
   <v>       0.04920811      -0.03239873       0.01168683 </v>
   <v>       0.02942582      -0.02251201      -0.01706953 </v>
   <v>      -0.01230455      -0.02655531       0.00689936 </v>
   <v>       0.02942582      -0.02251201      -0.01706953 </v>
   <v>      -0.01230455      -0.02655531       0.00689936 </v>
   <v>       0.08578554      -0.04172110       0.02828118 </v>
   <v>      -0.02547594      -0.03422491       0.01399175 </v>
   <v>       0.08578554      -0.04172110       0.02828118 </v>
   <v>      -0.02547594      -0.03422491       0.01399175 </v>
   <v>      -0.01333268      -0.01039119      -0.00834176 </v>
   <v>       0.05104193      -0.03755703       0.02111161 </v>
   <v>      -0.01333268      -0.01039119      -0.00834176 </v>
   <v>       0.05104193      -0.03755703       0.02111161 </v>
   <v>       0.00934503       0.00876731       0.00184747 </v>
   <v>      -0.00441870       0.05632642      -0.03802212 </v>
   <v>       0.00934503       0.00876731       0.00184747 </v>
   <v>      -0.00441870       0.05632642      -0.03802212 </v>
   <v>       0.00770820      -0.00699815      -0.02358049 </v>
   <v>       0.02376786       0.03858440       0.05015237 </v>
   <v>       0.00770820      -0.00699815      -0.02358049 </v>
   <v>       0.02376786       0.03858440       0.05015237 </v>
   <v>      -0.00565719       0.01012544       0.01617682 </v>
   <v>       0.02862923       0.04695839       0.02007715 </v>
   <v>      -0.00565719       0.01012544       0.01617682 </v>
   <v>       0.02862923       0.04695839       0.02007715 </v>
   <v>       0.04872855      -0.00153759      -0.03407248 </v>
   <v>      -0.00124677       0.03430706       0.01205614 </v>
   <v>       0.04872855      -0.00153759      -0.03407248 </v>
   <v>      -0.00124677       0.03430706       0.01205614 </v>
   <v>       0.19198625       0.00024095      -0.01427226 </v>
   <v>      -0.08557034      -0.00420190       0.00943357 </v>
   <v>      -0.18116125       0.03699098      -0.06882077 </v>
   <v>      -0.00762510      -0.00008140      -0.16415681 </v>
   <v>      -0.18116125       0.03699098      -0.06882077 </v>
   <v>       0.19198625       0.00024095      -0.01427226 </v>
   <v>      -0.08557034      -0.00420190       0.00943357 </v>
   <v>      -0.00762510      -0.00008140      -0.16415681 </v>
   <v>       0.03822200      -0.01456833       0.03129853 </v>
   <v>       0.03822200      -0.01456833       0.03129853 </v>
   <v>      -0.02968180      -0.01646902      -0.04108075 </v>
   <v>       0.03494000       0.01441149       0.00487860 </v>
   <v>      -0.00730626       0.03506343       0.13009023 </v>
   <v>       0.03202148       0.00571178      -0.00721536 </v>
   <v>      -0.03503044       0.00469932       0.00454859 </v>
   <v>      -0.03503044       0.00469932       0.00454859 </v>
   <v>      -0.00850570      -0.06070455       0.10320898 </v>
   <v>       0.03494000       0.01441149       0.00487860 </v>
   <v>      -0.01203212       0.00418210       0.01481569 </v>
   <v>      -0.01022956      -0.02486299       0.04289909 </v>
   <v>      -0.01558951       0.02422439      -0.11120681 </v>
   <v>      -0.01022956      -0.02486299       0.04289909 </v>
   <v>      -0.01558951       0.02422439      -0.11120681 </v>
   <v>       0.03202148       0.00571178      -0.00721536 </v>
   <v>      -0.00730626       0.03506343       0.13009023 </v>
   <v>      -0.01203212       0.00418210       0.01481569 </v>
   <v>       0.08453547      -0.03279478       0.00918233 </v>
   <v>       0.02998281      -0.02111067       0.00634867 </v>
   <v>       0.08453547      -0.03279478       0.00918233 </v>
   <v>       0.02998281      -0.02111067       0.00634867 </v>
   <v>      -0.02968180      -0.01646902      -0.04108075 </v>
   <v>      -0.00850570      -0.06070455       0.10320898 </v>
   <v>      -0.00490725      -0.02233291      -0.01597453 </v>
   <v>      -0.06410965       0.01433800      -0.02083192 </v>
   <v>      -0.00490725      -0.02233291      -0.01597453 </v>
   <v>      -0.06410965       0.01433800      -0.02083192 </v>
   <v>       0.01106592      -0.01172732       0.04833085 </v>
   <v>      -0.00540848      -0.00093264      -0.08350215 </v>
   <v>       0.01106592      -0.01172732       0.04833085 </v>
   <v>      -0.00540848      -0.00093264      -0.08350215 </v>
   <v>      -0.03403482      -0.02482976       0.01147278 </v>
   <v>      -0.04497898       0.02042282       0.00704297 </v>
   <v>      -0.03403482      -0.02482976       0.01147278 </v>
   <v>      -0.04497898       0.02042282       0.00704297 </v>
   <v>       0.03589641      -0.01909124       0.04227532 </v>
   <v>      -0.06178211       0.03399025      -0.04561472 </v>
   <v>       0.03589641      -0.01909124       0.04227532 </v>
   <v>      -0.06178211       0.03399025      -0.04561472 </v>
   <v>      -0.04200638       0.02068774      -0.05139371 </v>
   <v>      -0.01967596       0.02875839       0.06090088 </v>
   <v>      -0.04200638       0.02068774      -0.05139371 </v>
   <v>      -0.01967596       0.02875839       0.06090088 </v>
   <v>       0.02261861       0.06589424       0.05653554 </v>
   <v>      -0.08157071      -0.03366998      -0.06850761 </v>
   <v>       0.02261861       0.06589424       0.05653554 </v>
   <v>      -0.08157071      -0.03366998      -0.06850761 </v>
   <v>      -0.02166374       0.02983696      -0.02749282 </v>
   <v>      -0.02653779      -0.00716528       0.06269079 </v>
   <v>      -0.02166374       0.02983696      -0.02749282 </v>
   <v>      -0.02653779      -0.00716528       0.06269079 </v>
   <v>       0.03430431       0.04102395       0.11889059 </v>
   <v>      -0.04337277       0.02721539      -0.08065926 </v>
   <v>       0.03430431       0.04102395       0.11889059 </v>
   <v>      -0.04337277       0.02721539      -0.08065926 </v>
   <v>       0.02383514       0.08323872      -0.01701645 </v>
   <v>       0.08092963      -0.01353539       0.00690984 </v>
   <v>       0.06183946      -0.04423725       0.01318908 </v>
   <v>       0.04759347      -0.06027453       0.01216321 </v>
   <v>       0.02383514       0.08323872      -0.01701645 </v>
   <v>       0.08092963      -0.01353539       0.00690984 </v>
   <v>       0.06183946      -0.04423725       0.01318908 </v>
   <v>       0.04759347      -0.06027453       0.01216321 </v>
   <v>      -0.07331065      -0.03387211      -0.00466962 </v>
   <v>       0.10575268      -0.06125262      -0.01198194 </v>
   <v>       0.06192779       0.01343689      -0.01757680 </v>
   <v>      -0.10303793       0.06132336      -0.02104727 </v>
   <v>      -0.07774168       0.02304695       0.00126761 </v>
[...]
       <r>   -17.7159     0.0000    32.0000 </r>
       <r>   -17.5617     0.0000    32.0000 </r>
       <r>   -17.4075     0.0000    32.0000 </r>
       <r>   -17.2533     0.0000    32.0000 </r>
       <r>   -17.0991     0.0000    32.0000 </r>
       <r>   -16.9448     0.0000    32.0000 </r>
       <r>   -16.7906     0.0000    32.0000 </r>
       <r>   -16.6364     0.0000    32.0000 </r>
       <r>   -16.4822     0.0000    32.0000 </r>
       <r>   -16.3280     0.0000    32.0000 </r>
       <r>   -16.1738     0.0000    32.0000 </r>
       <r>   -16.0196     0.0000    32.0000 </r>
       <r>   -15.8654     0.0000    32.0000 </r>
       <r>   -15.7112     0.0000    32.0000 </r>
       <r>   -15.5570     0.0000    32.0000 </r>
       <r>   -15.4028     0.0001    32.0000 </r>
       <r>   -15.2486     3.9629    32.6111 </r>
       <r>   -15.0944    19.5522    35.6261 </r>
       <r>   -14.9402    36.1749    41.2044 </r>
       <r>   -14.7860    50.0598    48.9237 </r>
       <r>   -14.6318    45.1044    55.8790 </r>
       <r>   -14.4776    34.9913    61.2747 </r>
       <r>   -14.3234    44.7342    68.1729 </r>
       <r>   -14.1692    66.3460    78.4036 </r>
       <r>   -14.0150    80.1900    90.7691 </r>
       <r>   -13.8608    73.2271   102.0609 </r>
       <r>   -13.7066    58.1796   111.0324 </r>
       <r>   -13.5524    20.4217   114.1815 </r>
       <r>   -13.3982    11.7873   115.9991 </r>
       <r>   -13.2440     0.0059   116.0000 </r>
       <r>   -13.0898     0.0000   116.0000 </r>
       <r>   -12.9356     0.0002   116.0000 </r>
       <r>   -12.7814     6.4303   116.9916 </r>
       <r>   -12.6272    55.3117   125.5208 </r>
       <r>   -12.4730    84.4440   138.5423 </r>
       <r>   -12.3188   109.3300   155.4013 </r>
       <r>   -12.1646   110.2300   172.3991 </r>
       <r>   -12.0104    98.4689   187.5832 </r>
       <r>   -11.8562    75.8115   199.2736 </r>
       <r>   -11.7020    52.4064   207.3548 </r>
       <r>   -11.5478    29.7215   211.9379 </r>
       <r>   -11.3936     0.4025   212.0000 </r>
       <r>   -11.2393     0.0000   212.0000 </r>
       <r>   -11.0851     0.0000   212.0000 </r>
       <r>   -10.9309     0.0000   212.0000 </r>
       <r>   -10.7767     0.0000   212.0000 </r>
       <r>   -10.6225     0.0000   212.0000 </r>
       <r>   -10.4683     0.0000   212.0000 </r>
       <r>   -10.3141     0.0000   212.0000 </r>
       <r>   -10.1599     0.0000   212.0000 </r>
       <r>   -10.0057     0.0000   212.0000 </r>
       <r>    -9.8515     0.0000   212.0000 </r>
       <r>    -9.6973     0.0000   212.0000 </r>
       <r>    -9.5431     0.0000   212.0000 </r>
       <r>    -9.3889     0.0000   212.0000 </r>
       <r>    -9.2347     0.0000   212.0000 </r>
       <r>    -9.0805     0.0000   212.0000 </r>
       <r>    -8.9263     0.0000   212.0000 </r>
       <r>    -8.7721     0.0000   212.0000 </r>
       <r>    -8.6179     0.0000   212.0000 </r>
       <r>    -8.4637     0.0000   212.0000 </r>
       <r>    -8.3095     0.0000   212.0000 </r>
       <r>    -8.1553     0.0000   212.0000 </r>
       <r>    -8.0011     0.0000   212.0000 </r>
       <r>    -7.8469     0.0000   212.0000 </r>
       <r>    -7.6927     0.0000   212.0000 </r>
       <r>    -7.5385     0.0000   212.0000 </r>
       <r>    -7.3843     0.0000   212.0000 </r>
       <r>    -7.2301     0.0000   212.0000 </r>
       <r>    -7.0759     0.0000   212.0000 </r>
       <r>    -6.9217     0.0000   212.0000 </r>
       <r>    -6.7675     0.0000   212.0000 </r>
       <r>    -6.6133     0.0000   212.0000 </r>
       <r>    -6.4591     0.0000   212.0000 </r>
       <r>    -6.3049     0.0000   212.0000 </r>
       <r>    -6.1507     0.0000   212.0000 </r>
       <r>    -5.9965     0.0000   212.0000 </r>
       <r>    -5.8423     0.0000   212.0000 </r>
       <r>    -5.6880     0.0000   212.0000 </r>
       <r>    -5.5338     0.0000   212.0000 </r>
       <r>    -5.3796     0.0000   212.0000 </r>
       <r>    -5.2254     0.0000   212.0000 </r>
       <r>    -5.0712     0.0000   212.0000 </r>
       <r>    -4.9170     0.0000   212.0000 </r>
       <r>    -4.7628     0.0000   212.0000 </r>
       <r>    -4.6086     0.0000   212.0000 </r>
       <r>    -4.4544     0.0000   212.0000 </r>
       <r>    -4.3002     0.0000   212.0000 </r>
       <r>    -4.1460     0.0000   212.0000 </r>
       <r>    -3.9918     0.0000   212.0000 </r>
       <r>    -3.8376     0.0000   212.0000 </r>
       <r>    -3.6834     0.0000   212.0000 </r>
       <r>    -3.5292     0.0000   212.0000 </r>
       <r>    -3.3750     0.0000   212.0000 </r>
       <r>    -3.2208     0.0000   212.0000 </r>
       <r>    -3.0666     0.0000   212.0000 </r>
       <r>    -2.9124     0.0000   212.0000 </r>
       <r>    -2.7582     0.0009   212.0001 </r>
       <r>    -2.6040     4.9233   212.7593 </r>
       <r>    -2.4498     7.9144   213.9797 </r>
       <r>    -2.2956    11.1098   215.6929 </r>
       <r>    -2.1414    23.5376   219.3225 </r>
       <r>    -1.9872    22.3709   222.7721 </r>
       <r>    -1.8330    16.7499   225.3550 </r>
       <r>    -1.6788    31.6390   230.2338 </r>
       <r>    -1.5246    36.2700   235.8267 </r>
       <r>    -1.3704    49.0979   243.3978 </r>
       <r>    -1.2162    51.7019   251.3703 </r>
       <r>    -1.0620    71.8574   262.4509 </r>
       <r>    -0.9078    68.2859   272.9808 </r>
       <r>    -0.7536    96.1621   287.8093 </r>
       <r>    -0.5994    93.1825   302.1783 </r>
       <r>    -0.4452    76.9319   314.0414 </r>
       <r>    -0.2910    70.2732   324.8777 </r>
       <r>    -0.1368    70.2395   335.7088 </r>
       <r>     0.0175    57.1652   344.5239 </r>
       <r>     0.1717    62.2724   354.1264 </r>
       <r>     0.3259    57.7407   363.0302 </r>
       <r>     0.4801    57.2730   371.8618 </r>
       <r>     0.6343    61.2066   381.3001 </r>
       <r>     0.7885    55.5400   389.8645 </r>
       <r>     0.9427    69.6516   400.6050 </r>
       <r>     1.0969    63.3039   410.3666 </r>
       <r>     1.2511    69.9588   421.1544 </r>
       <r>     1.4053    74.6086   432.6593 </r>
       <r>     1.5595    73.5203   443.9963 </r>
       <r>     1.7137    60.6356   453.3465 </r>
       <r>     1.8679    32.9747   458.4313 </r>
       <r>     2.0221    20.3188   461.5645 </r>
       <r>     2.1763     9.4986   463.0292 </r>
       <r>     2.3305     6.2520   463.9933 </r>
       <r>     2.4847     0.0436   464.0000 </r>
       <r>     2.6389     0.0000   464.0000 </r>
       <r>     2.7931     0.0000   464.0000 </r>
       <r>     2.9473     0.0000   464.0000 </r>
       <r>     3.1015     0.0000   464.0000 </r>
       <r>     3.2557     0.0000   464.0000 </r>
       <r>     3.4099     0.0000   464.0000 </r>
       <r>     3.5641     0.0000   464.0000 </r>
       <r>     3.7183     0.0000   464.0000 </r>
       <r>     3.8725     0.0000   464.0000 </r>
       <r>     4.0267     0.0000   464.0000 </r>
       <r>     4.1809     0.3272   464.0505 </r>
       <r>     4.3351    34.2231   469.3278 </r>
       <r>     4.4893    82.0210   481.9756 </r>
       <r>     4.6435    74.4110   493.4500 </r>
       <r>     4.7977    78.5363   505.5605 </r>
       <r>     4.9519    82.2433   518.2427 </r>
       <r>     5.1061    82.8386   531.0166 </r>
       <r>     5.2603    74.6580   542.5291 </r>
       <r>     5.4145    71.8151   553.6032 </r>
       <r>     5.5688    84.2379   566.5929 </r>
       <r>     5.7230    84.9528   579.6928 </r>
       <r>     5.8772    87.7686   593.2270 </r>
       <r>     6.0314    63.6756   603.0459 </r>
       <r>     6.1856     6.6416   604.0701 </r>
       <r>     6.3398    15.6943   606.4902 </r>
       <r>     6.4940     3.3059   607.0000 </r>
       <r>     6.6482     0.1212   607.0187 </r>
       <r>     6.8024     7.8913   608.2355 </r>
       <r>     6.9566    10.1117   609.7948 </r>
       <r>     7.1108    12.6305   611.7425 </r>
       <r>     7.2650    19.4195   614.7370 </r>
       <r>     7.4192    13.1016   616.7573 </r>
       <r>     7.5734    12.7938   618.7301 </r>
       <r>     7.7276    25.4676   622.6573 </r>
       <r>     7.8818    15.6691   625.0735 </r>
       <r>     8.0360    17.9048   627.8345 </r>
       <r>     8.1902    19.0669   630.7747 </r>
       <r>     8.3444    34.9341   636.1616 </r>
       <r>     8.4986    15.8251   638.6019 </r>
       <r>     8.6528    13.4651   640.6782 </r>
       <r>     8.8070    32.1720   645.6393 </r>
       <r>     8.9612    33.1473   650.7507 </r>
       <r>     9.1154    31.3417   655.5836 </r>
       <r>     9.2696    46.2027   662.7082 </r>
       <r>     9.4238    47.8130   670.0811 </r>
       <r>     9.5780    43.3847   676.7712 </r>
       <r>     9.7322    39.9893   682.9376 </r>
       <r>     9.8864    50.0644   690.6577 </r>
       <r>    10.0406    53.8344   698.9591 </r>
       <r>    10.1948    52.6996   707.0855 </r>
       <r>    10.3490    59.4137   716.2473 </r>
       <r>    10.5032    49.5581   723.8893 </r>
       <r>    10.6574    46.3871   731.0423 </r>
       <r>    10.8116    49.2047   738.6298 </r>
       <r>    10.9658    53.9716   746.9524 </r>
       <r>    11.1200    56.5070   755.6659 </r>
       <r>    11.2743    58.3220   764.6593 </r>
       <r>    11.4285    21.6484   767.9976 </r>
       <r>    11.5827     0.0158   768.0000 </r>
       <r>    11.7369     0.0000   768.0000 </r>
       <r>    11.8911     0.0000   768.0000 </r>
       <r>    12.0453     0.0000   768.0000 </r>
       <r>    12.1995     0.0000   768.0000 </r>
       <r>    12.3537     0.0000   768.0000 </r>
       <r>    12.5079     0.0000   768.0000 </r>
       <r>    12.6621     0.0000   768.0000 </r>
       <r>    12.8163     0.0000   768.0000 </r>
       <r>    12.9705     0.0000   768.0000 </r>
       <r>    13.1247     0.0000   768.0000 </r>
       <r>    13.2789     0.0000   768.0000 </r>
       <r>    13.4331     0.0000   768.0000 </r>
      </set>
     </set>
    </array>
   </total>
  </dos>
 </calculation>
 <structure name="finalpos" >
  <crystal>
   <varray name="basis" >
    <v>      11.19691957       0.01931724       0.01287457 </v>
    <v>       0.01877886      11.39771172      -0.00602616 </v>
    <v>       0.01779853      -0.00765506      15.77848915 </v>
   </varray>
   <i name="volume">   2013.63027484 </i>
   <varray name="rec_basis" >
    <v>       0.08931065      -0.00014720      -0.00010082 </v>
    <v>      -0.00015142       0.08773718       0.00004274 </v>
    <v>      -0.00007293       0.00003363       0.06337752 </v>
   </varray>
  </crystal>
  <varray name="positions" >
   <v>       0.99780986       0.24586414       0.11435994 </v>
   <v>       0.00079273       0.25832025       0.61069651 </v>
   <v>       0.99780986       0.74586414       0.11435994 </v>
   <v>       0.00079273       0.75832025       0.61069651 </v>
   <v>       0.51017395       0.24767590       0.12171821 </v>
   <v>       0.49638272       0.25833163       0.60814420 </v>
   <v>       0.51017395       0.74767590       0.12171821 </v>
   <v>       0.49638272       0.75833163       0.60814420 </v>
   <v>       0.99645838       0.24534785       0.38391567 </v>
   <v>       0.00074397       0.25825098       0.88968088 </v>
   <v>       0.99645838       0.74534785       0.38391567 </v>
   <v>       0.00074397       0.75825098       0.88968088 </v>
   <v>       0.51486110       0.24898945       0.37659242 </v>
   <v>       0.49899282       0.25777523       0.89402741 </v>
   <v>       0.51486110       0.74898945       0.37659242 </v>
   <v>       0.49899282       0.75777523       0.89402741 </v>
   <v>       0.25133178       0.00560518       0.11214859 </v>
   <v>       0.25060743       0.98920081       0.61020523 </v>
   <v>       0.25133178       0.50560518       0.11214859 </v>
   <v>       0.25060743       0.48920081       0.61020523 </v>
   <v>       0.75662457       0.00213725       0.11989901 </v>
   <v>       0.74758194       0.99190298       0.60951008 </v>
   <v>       0.75662457       0.50213725       0.11989901 </v>
   <v>       0.74758194       0.49190298       0.60951008 </v>
   <v>       0.25008096       0.00533448       0.38609326 </v>
   <v>       0.25772239       0.98911568       0.89105113 </v>
   <v>       0.25008096       0.50533448       0.38609326 </v>
   <v>       0.25772239       0.48911568       0.89105113 </v>
   <v>       0.75910255       0.00167945       0.37678580 </v>
   <v>       0.74078626       0.99136211       0.89139737 </v>
   <v>       0.75910255       0.50167945       0.37678580 </v>
   <v>       0.74078626       0.49136211       0.89139737 </v>
   <v>       0.00217958       0.50052035       0.49959411 </v>
   <v>       0.00205416       0.00039260      -0.00098401 </v>
   <v>       0.50097783       0.50165428       0.49564120 </v>
   <v>       0.76052731       0.24046814       0.24955900 </v>
   <v>       0.50097783       0.00165428       0.49564120 </v>
   <v>       0.00217958       0.00052035       0.49959411 </v>
   <v>       0.00205416       0.50039260      -0.00098401 </v>
   <v>       0.76052731       0.74046814       0.24955900 </v>
   <v>       0.50093710       0.50142902       0.01101529 </v>
   <v>       0.50093710       0.00142902       0.01101529 </v>
   <v>       0.52675151       0.98857552       0.25044571 </v>
   <v>       0.25334155       0.74804937       0.00276726 </v>
   <v>       0.72893126       0.71513919       0.75006023 </v>
   <v>       0.75199691       0.24967074       0.50060952 </v>
   <v>       0.25129386       0.24840429       0.49518006 </v>
   <v>       0.25129386       0.74840429       0.49518006 </v>
   <v>       0.47952883       0.03480551       0.74668143 </v>
   <v>       0.25334155       0.24804937       0.00276726 </v>
   <v>       0.74984099       0.74927755       0.00018558 </v>
   <v>       0.25740322       0.29278453       0.25034300 </v>
   <v>       0.23178149       0.21437294       0.74995066 </v>
   <v>       0.25740322       0.79278453       0.25034300 </v>
   <v>       0.23178149       0.71437294       0.74995066 </v>
   <v>       0.75199691       0.74967074       0.50060952 </v>
   <v>       0.72893126       0.21513919       0.75006023 </v>
   <v>       0.74984099       0.24927755       0.00018558 </v>
   <v>       0.99673469       0.98494255       0.24861672 </v>
   <v>       0.98083685       0.03531011       0.75053304 </v>
   <v>       0.99673469       0.48494255       0.24861672 </v>
   <v>       0.98083685       0.53531011       0.75053304 </v>
   <v>       0.52675151       0.48857552       0.25044571 </v>
   <v>       0.47952883       0.53480551       0.74668143 </v>
   <v>       0.00577550       0.01279056       0.12302455 </v>
   <v>       0.01049358       0.97680267       0.64025670 </v>
   <v>       0.00577550       0.51279056       0.12302455 </v>
   <v>       0.01049358       0.47680267       0.64025670 </v>
   <v>       0.48623164       0.02190550       0.13488686 </v>
   <v>       0.50254344       0.98006140       0.63314058 </v>
   <v>       0.48623164       0.52190550       0.13488686 </v>
   <v>       0.50254344       0.48006140       0.63314058 </v>
   <v>       0.00732933       0.01330700       0.37718561 </v>
   <v>       0.01153181       0.97718132       0.85960802 </v>
   <v>       0.00732933       0.51330700       0.37718561 </v>
   <v>       0.01153181       0.47718132       0.85960802 </v>
   <v>       0.49324230       0.01874098       0.37195067 </v>
   <v>       0.50953491       0.96998461       0.85140240 </v>
   <v>       0.49324230       0.51874098       0.37195067 </v>
   <v>       0.50953491       0.46998461       0.85140240 </v>
   <v>       0.23514491       0.22467077       0.36055269 </v>
   <v>       0.26058844       0.27320515       0.85823600 </v>
   <v>       0.23514491       0.72467077       0.36055269 </v>
   <v>       0.26058844       0.77320515       0.85823600 </v>
   <v>       0.76005150       0.24070738       0.37697124 </v>
   <v>       0.75656511       0.27372795       0.85882705 </v>
   <v>       0.76005150       0.74070738       0.37697124 </v>
   <v>       0.75656511       0.77372795       0.85882705 </v>
   <v>       0.23467317       0.22453918       0.14205685 </v>
   <v>       0.26120088       0.27377569       0.64085402 </v>
   <v>       0.23467317       0.72453918       0.14205685 </v>
   <v>       0.26120088       0.77377569       0.64085402 </v>
   <v>       0.76176745       0.23965847       0.12543420 </v>
   <v>       0.75588243       0.27458106       0.64012647 </v>
   <v>       0.76176745       0.73965847       0.12543420 </v>
   <v>       0.75588243       0.77458106       0.64012647 </v>
   <v>       0.16655641       0.43587734       0.25020102 </v>
   <v>       0.41420515       0.34927087       0.25291937 </v>
   <v>       0.66469200       0.39137490       0.25083177 </v>
   <v>       0.91615456       0.34068888       0.25079920 </v>
   <v>       0.16655641       0.93587734       0.25020102 </v>
   <v>       0.41420515       0.84927087       0.25291937 </v>
   <v>       0.66469200       0.89137490       0.25083177 </v>
   <v>       0.91615456       0.84068888       0.25079920 </v>
   <v>       0.12767492       0.12294490       0.51117116 </v>
   <v>       0.37541044       0.12472167       0.50677749 </v>
   <v>       0.62542434       0.12441751       0.50813105 </v>
   <v>       0.87916971       0.12433508       0.51254192 </v>
   <v>       0.12567602       0.37177640       0.49597002 </v>
   <v>       0.37482563       0.37504776       0.49069893 </v>
   <v>       0.62392282       0.37650621       0.49331713 </v>
   <v>       0.87730364       0.37885217       0.49841467 </v>
   <v>       0.12767492       0.62294490       0.51117116 </v>
   <v>       0.37541044       0.62472167       0.50677749 </v>
   <v>       0.62542434       0.62441751       0.50813105 </v>
   <v>       0.87916971       0.62433508       0.51254192 </v>
   <v>       0.12567602       0.87177640       0.49597002 </v>
   <v>       0.37482563       0.87504776       0.49069893 </v>
   <v>       0.62392282       0.87650621       0.49331713 </v>
   <v>       0.87730364       0.87885217       0.49841467 </v>
   <v>       0.06042078       0.18396131       0.74946958 </v>
   <v>       0.30921306       0.06369949       0.74910097 </v>
   <v>       0.55903450       0.18383066       0.74866661 </v>
   <v>       0.81070064       0.06548853       0.74991179 </v>
   <v>       0.06042078       0.68396131       0.74946958 </v>
   <v>       0.30921306       0.56369949       0.74910097 </v>
   <v>       0.55903450       0.68383066       0.74866661 </v>
   <v>       0.81070064       0.56548853       0.74991179 </v>
   <v>       0.12736078       0.12296224       0.98902393 </v>
   <v>       0.37526357       0.12401364       0.99254652 </v>
   <v>       0.62689219       0.12402617       0.99423258 </v>
   <v>       0.87953597       0.12427775       0.98767878 </v>
   <v>       0.12517670       0.37150917       0.00343237 </v>
   <v>       0.37421826       0.37345325       0.00949244 </v>
   <v>       0.62468511       0.37553094       0.00897895 </v>
   <v>       0.87719025       0.37838131       0.00133573 </v>
   <v>       0.12736078       0.62296224       0.98902393 </v>
   <v>       0.37526357       0.62401364       0.99254652 </v>
   <v>       0.62689219       0.62402617       0.99423258 </v>
   <v>       0.87953597       0.62427775       0.98767878 </v>
   <v>       0.12517670       0.87150917       0.00343237 </v>
   <v>       0.37421826       0.87345325       0.00949244 </v>
   <v>       0.62468511       0.87553094       0.00897895 </v>
   <v>       0.87719025       0.87838131       0.00133573 </v>
   <v>       0.61816895       0.14148096       0.25199650 </v>
   <v>       0.87139661       0.10324117       0.25142108 </v>
   <v>       0.61816895       0.64148096       0.25199650 </v>
   <v>       0.87139661       0.60324117       0.25142108 </v>
  </varray>
 </structure>
</modeling>
