       N       E                     dE             d eps       ncg     rms          rms(c)
DAV:   1    -0.105824830845E+04   -0.10582E+04   -0.19898E-01  3232   0.103E+00    0.695E-02
RMM:   2    -0.105824830599E+04    0.24574E-05   -0.12209E-04  1905   0.202E-02    0.117E-01
RMM:   3    -0.105824830537E+04    0.62161E-06   -0.23886E-05  1747   0.103E-02    0.166E-02
RMM:   4    -0.105824830778E+04   -0.24060E-05   -0.82040E-06  1604   0.419E-03    0.126E-02
RMM:   5    -0.105824830992E+04   -0.21464E-05   -0.22572E-06  1305   0.303E-03    0.833E-03
RMM:   6    -0.105824831004E+04   -0.11759E-06   -0.90536E-07   931   0.228E-03    0.255E-03
RMM:   7    -0.105824831005E+04   -0.11147E-07   -0.58903E-07   740   0.197E-03    0.179E-03
RMM:   8    -0.105824831004E+04    0.10608E-07   -0.10401E-07   532   0.177E-03
   1 F= -.10582483E+04 E0= -.10582483E+04  d E =-.105825E+04  mag=    80.0000
       N       E                     dE             d eps       ncg     rms          rms(c)
DAV:   1    -0.105824729193E+04    0.10181E-02   -0.57335E-01  3136   0.888E-01    0.495E-01
RMM:   2    -0.105824976052E+04   -0.24686E-02   -0.17828E-02  3081   0.185E-01    0.322E-01
RMM:   3    -0.105824999868E+04   -0.23816E-03   -0.10780E-03  3042   0.612E-02    0.177E-01
RMM:   4    -0.105824988004E+04    0.11864E-03   -0.37775E-04  2605   0.251E-02    0.108E-01
RMM:   5    -0.105824985956E+04    0.20487E-04   -0.11085E-04  1873   0.161E-02    0.674E-02
RMM:   6    -0.105824986554E+04   -0.59882E-05   -0.30298E-05  1786   0.916E-03    0.416E-02
RMM:   7    -0.105824986978E+04   -0.42318E-05   -0.14121E-05  1768   0.568E-03    0.161E-02
RMM:   8    -0.105824987341E+04   -0.36340E-05   -0.94353E-06  1741   0.504E-03
   2 F= -.10582499E+04 E0= -.10582499E+04  d E =-.156337E-02  mag=    80.0000
