<?xml version="1.0" encoding="ISO-8859-1"?>
<modeling>
 <generator>
  <i name="program" type="string">vasp </i>
  <i name="version" type="string">5.4.1  </i>
  <i name="subversion" type="string">05Feb16 (build Jan 25 2017 20:16:33) complex                          parallel </i>
  <i name="platform" type="string">BWXE6 </i>
  <i name="date" type="string">2019 08 11 </i>
  <i name="time" type="string">11:57:54 </i>
 </generator>
 <incar>
  <i type="string" name="SYSTEM"> STF</i>
  <i type="string" name="PREC">normal</i>
  <i type="string" name="ALGO"> Fast</i>
  <i type="int" name="ISPIN">     2</i>
  <i type="int" name="NELM">    40</i>
  <i type="int" name="NELMIN">     8</i>
  <i type="int" name="IBRION">     2</i>
  <i name="EDIFF">      0.00010000</i>
  <i name="EDIFFG">     -0.03000000</i>
  <i type="int" name="NSW">    30</i>
  <i type="int" name="ISIF">     3</i>
  <i name="ENCUT">    520.00000000</i>
  <i type="int" name="NBANDS">   768</i>
  <v name="MAGMOM">      0.60000000      0.60000000      0.60000000      0.60000000      0.60000000      0.60000000      0.60000000      0.60000000      0.60000000      0.60000000      0.60000000      0.60000000      0.60000000      0.60000000      0.60000000      0.60000000      0.60000000      0.60000000      0.60000000      0.60000000
      0.60000000      0.60000000      0.60000000      0.60000000      0.60000000      0.60000000      0.60000000      0.60000000      0.60000000      0.60000000      0.60000000      0.60000000      0.60000000      0.60000000      0.60000000      0.60000000      0.60000000      0.60000000      0.60000000      0.60000000
      0.60000000      0.60000000      0.60000000      0.60000000      0.60000000      0.60000000      0.60000000      0.60000000      5.00000000      5.00000000      5.00000000      5.00000000      5.00000000      5.00000000      5.00000000      5.00000000      5.00000000      5.00000000      5.00000000      5.00000000
      5.00000000      5.00000000      5.00000000      5.00000000      0.60000000      0.60000000      0.60000000      0.60000000      0.60000000      0.60000000      0.60000000      0.60000000      0.60000000      0.60000000      0.60000000      0.60000000      0.60000000      0.60000000      0.60000000      0.60000000
      0.60000000      0.60000000      0.60000000      0.60000000      0.60000000      0.60000000      0.60000000      0.60000000      0.60000000      0.60000000      0.60000000      0.60000000      0.60000000      0.60000000      0.60000000      0.60000000      0.60000000      0.60000000      0.60000000      0.60000000
      0.60000000      0.60000000      0.60000000      0.60000000      0.60000000      0.60000000      0.60000000      0.60000000      0.60000000      0.60000000      0.60000000      0.60000000      0.60000000      0.60000000      0.60000000      0.60000000      0.60000000      0.60000000      0.60000000      0.60000000
      0.60000000      0.60000000      0.60000000      0.60000000      0.60000000      0.60000000      0.60000000      0.60000000      0.60000000      0.60000000      0.60000000      0.60000000      0.60000000      0.60000000      0.60000000      0.60000000      0.60000000      0.60000000      0.60000000      0.60000000
      0.60000000      0.60000000      0.60000000      0.60000000      0.60000000      0.60000000      0.60000000      0.60000000      0.60000000      0.60000000      0.60000000      0.60000000</v>
  <i type="string" name="LREAL"> Auto</i>
  <i type="int" name="ISMEAR">     0</i>
  <i name="SIGMA">      0.05000000</i>
  <i type="int" name="LMAXMIX">     4</i>
  <v type="int" name="KPOINT_BSE">    -1     0     0     0</v>
  <i type="int" name="NELM">    40</i>
  <i type="logical" name="LDAU"> T  </i>
  <v type="int" name="LDAUTYPE">     2</v>
  <v type="int" name="LDAUL">     0     2     2     0</v>
  <v name="LDAUU">      0.00000000      3.00000000      5.00000000      0.00000000</v>
  <v name="LDAUJ">      0.00000000      0.00000000      0.00000000      0.00000000</v>
  <i type="int" name="LDAUPRINT">     1</i>
 </incar>
 <kpoints>
  <generation param="Monkhorst-Pack">
   <v type="int" name="divisions">       2        2        2 </v>
   <v name="usershift">      0.00000000       0.00000000       0.00000000 </v>
   <v name="genvec1">      0.50000000       0.00000000       0.00000000 </v>
   <v name="genvec2">      0.00000000       0.50000000       0.00000000 </v>
   <v name="genvec3">      0.00000000       0.00000000       0.50000000 </v>
   <v name="shift">      0.50000000       0.50000000       0.50000000 </v>
  </generation>
  <varray name="kpointlist" >
   <v>       0.25000000       0.25000000       0.25000000 </v>
  </varray>
  <varray name="weights" >
   <v>       1.00000000 </v>
  </varray>
 </kpoints>
 <parameters>
  <separator name="general" >
   <i type="string" name="SYSTEM">STF</i>
   <i type="logical" name="LCOMPAT"> F  </i>
  </separator>
  <separator name="electronic" >
   <i type="string" name="PREC">normal</i>
   <i name="ENMAX">    520.00000000</i>
   <i name="ENAUG">    605.39200000</i>
   <i name="EDIFF">      0.00010000</i>
   <i type="int" name="IALGO">    68</i>
   <i type="int" name="IWAVPR">    11</i>
   <i type="int" name="NBANDS">   768</i>
   <i name="NELECT">   1040.00000000</i>
   <i type="int" name="TURBO">     0</i>
   <i type="int" name="IRESTART">     0</i>
   <i type="int" name="NREBOOT">     0</i>
   <i type="int" name="NMIN">     0</i>
   <i name="EREF">      0.00000000</i>
   <separator name="electronic smearing" >
    <i type="int" name="ISMEAR">     0</i>
    <i name="SIGMA">      0.05000000</i>
    <i name="KSPACING">      0.50000000</i>
    <i type="logical" name="KGAMMA"> T  </i>
   </separator>
   <separator name="electronic projectors" >
    <i type="logical" name="LREAL"> T  </i>
    <v name="ROPT">     -0.00050000     -0.00050000     -0.00050000     -0.00050000</v>
    <i type="int" name="LMAXPAW">  -100</i>
    <i type="int" name="LMAXMIX">     4</i>
    <i type="logical" name="NLSPLINE"> F  </i>
   </separator>
   <separator name="electronic startup" >
    <i type="int" name="ISTART">     1</i>
    <i type="int" name="ICHARG">     0</i>
    <i type="int" name="INIWAV">     1</i>
   </separator>
   <separator name="electronic spin" >
    <i type="int" name="ISPIN">     2</i>
    <i type="logical" name="LNONCOLLINEAR"> F  </i>
    <v name="MAGMOM">      0.60000000      0.60000000      0.60000000      0.60000000      0.60000000      0.60000000      0.60000000      0.60000000      0.60000000      0.60000000      0.60000000      0.60000000      0.60000000      0.60000000      0.60000000      0.60000000      0.60000000      0.60000000      0.60000000      0.60000000
      0.60000000      0.60000000      0.60000000      0.60000000      0.60000000      0.60000000      0.60000000      0.60000000      0.60000000      0.60000000      0.60000000      0.60000000      0.60000000      0.60000000      0.60000000      0.60000000      0.60000000      0.60000000      0.60000000      0.60000000
      0.60000000      0.60000000      0.60000000      0.60000000      0.60000000      0.60000000      0.60000000      0.60000000      5.00000000      5.00000000      5.00000000      5.00000000      5.00000000      5.00000000      5.00000000      5.00000000      5.00000000      5.00000000      5.00000000      5.00000000
      5.00000000      5.00000000      5.00000000      5.00000000      0.60000000      0.60000000      0.60000000      0.60000000      0.60000000      0.60000000      0.60000000      0.60000000      0.60000000      0.60000000      0.60000000      0.60000000      0.60000000      0.60000000      0.60000000      0.60000000
      0.60000000      0.60000000      0.60000000      0.60000000      0.60000000      0.60000000      0.60000000      0.60000000      0.60000000      0.60000000      0.60000000      0.60000000      0.60000000      0.60000000      0.60000000      0.60000000      0.60000000      0.60000000      0.60000000      0.60000000
      0.60000000      0.60000000      0.60000000      0.60000000      0.60000000      0.60000000      0.60000000      0.60000000      0.60000000      0.60000000      0.60000000      0.60000000      0.60000000      0.60000000      0.60000000      0.60000000      0.60000000      0.60000000      0.60000000      0.60000000
      0.60000000      0.60000000      0.60000000      0.60000000      0.60000000      0.60000000      0.60000000      0.60000000      0.60000000      0.60000000      0.60000000      0.60000000      0.60000000      0.60000000      0.60000000      0.60000000      0.60000000      0.60000000      0.60000000      0.60000000
      0.60000000      0.60000000      0.60000000      0.60000000      0.60000000      0.60000000      0.60000000      0.60000000      0.60000000      0.60000000      0.60000000      0.60000000</v>
    <i name="NUPDOWN">     -1.00000000</i>
    <i type="logical" name="LSORBIT"> F  </i>
    <v name="SAXIS">      0.00000000      0.00000000      1.00000000</v>
    <i type="logical" name="LSPIRAL"> F  </i>
    <v name="QSPIRAL">      0.00000000      0.00000000      0.00000000</v>
    <i type="logical" name="LZEROZ"> F  </i>
   </separator>
   <separator name="electronic exchange-correlation" >
    <i type="logical" name="LASPH"> F  </i>
    <i type="logical" name="LMETAGGA"> F  </i>
   </separator>
   <separator name="electronic convergence" >
    <i type="int" name="NELM">    40</i>
    <i type="int" name="NELMDL">     0</i>
    <i type="int" name="NELMIN">     8</i>
    <i name="ENINI">    520.00000000</i>
    <separator name="electronic convergence detail" >
     <i type="logical" name="LDIAG"> T  </i>
     <i type="logical" name="LSUBROT"> F  </i>
     <i name="WEIMIN">      0.00100000</i>
     <i name="EBREAK">      0.00000003</i>
     <i name="DEPER">      0.30000000</i>
     <i type="int" name="NRMM">     4</i>
     <i name="TIME">      0.40000000</i>
    </separator>
   </separator>
   <separator name="electronic mixer" >
    <i name="AMIX">      0.40000000</i>
    <i name="BMIX">      1.00000000</i>
    <i name="AMIN">      0.10000000</i>
    <i name="AMIX_MAG">      1.60000000</i>
    <i name="BMIX_MAG">      1.00000000</i>
    <separator name="electronic mixer details" >
     <i type="int" name="IMIX">     4</i>
     <i type="logical" name="MIXFIRST"> F  </i>
     <i type="int" name="MAXMIX">   -45</i>
     <i name="WC">    100.00000000</i>
     <i type="int" name="INIMIX">     1</i>
     <i type="int" name="MIXPRE">     1</i>
     <i type="int" name="MREMOVE">     5</i>
    </separator>
   </separator>
   <separator name="electronic dipolcorrection" >
    <i type="logical" name="LDIPOL"> F  </i>
    <i type="logical" name="LMONO"> F  </i>
    <i type="int" name="IDIPOL">     0</i>
    <i name="EPSILON">      1.00000000</i>
    <v name="DIPOL">   -100.00000000   -100.00000000   -100.00000000</v>
    <i name="EFIELD">      0.00000000</i>
   </separator>
  </separator>
  <separator name="grids" >
   <i type="int" name="NGX">    64</i>
   <i type="int" name="NGY">    64</i>
   <i type="int" name="NGZ">    90</i>
   <i type="int" name="NGXF">   128</i>
   <i type="int" name="NGYF">   128</i>
   <i type="int" name="NGZF">   180</i>
   <i type="logical" name="ADDGRID"> F  </i>
  </separator>
  <separator name="ionic" >
   <i type="int" name="NSW">    30</i>
   <i type="int" name="IBRION">     2</i>
   <i type="int" name="ISIF">     3</i>
   <i name="PSTRESS">      0.00000000</i>
   <i name="EDIFFG">     -0.03000000</i>
   <i type="int" name="NFREE">     1</i>
   <i name="POTIM">      0.50000000</i>
   <i name="SMASS">     -3.00000000</i>
   <i name="SCALEE">      1.00000000</i>
  </separator>
  <separator name="ionic md" >
   <i name="TEBEG">      0.00010000</i>
   <i name="TEEND">      0.00010000</i>
   <i type="int" name="NBLOCK">     1</i>
   <i type="int" name="KBLOCK">    30</i>
   <i type="int" name="NPACO">   256</i>
   <i name="APACO">     16.00000000</i>
  </separator>
  <separator name="symmetry" >
   <i type="int" name="ISYM">     2</i>
   <i name="SYMPREC">      0.00001000</i>
  </separator>
  <separator name="dos" >
   <i type="logical" name="LORBIT"> F  </i>
   <v name="RWIGS">     -1.00000000     -1.00000000     -1.00000000     -1.00000000</v>
   <i type="int" name="NEDOS">   301</i>
   <i name="EMIN">     10.00000000</i>
   <i name="EMAX">    -10.00000000</i>
   <i name="EFERMI">      0.00000000</i>
  </separator>
  <separator name="writing" >
   <i type="int" name="NWRITE">     2</i>
   <i type="logical" name="LWAVE"> T  </i>
   <i type="logical" name="LCHARG"> T  </i>
   <i type="logical" name="LPARD"> F  </i>
   <i type="logical" name="LVTOT"> F  </i>
   <i type="logical" name="LVHAR"> F  </i>
   <i type="logical" name="LELF"> F  </i>
   <i type="logical" name="LOPTICS"> F  </i>
   <v name="STM">      0.00000000      0.00000000      0.00000000      0.00000000      0.00000000      0.00000000      0.00000000</v>
  </separator>
  <separator name="performance" >
   <i type="int" name="NPAR">     2</i>
   <i type="int" name="NSIM">     4</i>
   <i type="int" name="NBLK">    -1</i>
   <i type="logical" name="LPLANE"> T  </i>
   <i type="logical" name="LSCALAPACK"> T  </i>
   <i type="logical" name="LSCAAWARE"> F  </i>
   <i type="logical" name="LSCALU"> F  </i>
   <i type="logical" name="LASYNC"> F  </i>
   <i type="logical" name="LORBITALREAL"> F  </i>
  </separator>
  <separator name="miscellaneous" >
   <i type="int" name="IDIOT">     3</i>
   <i type="logical" name="LMUSIC"> F  </i>
   <v name="POMASS">     87.62000000     47.88000000     55.84700000     16.00000000</v>
   <v name="DARWINR">      0.00000000      0.00000000      0.00000000      0.00000000</v>
   <v name="DARWINV">      1.00000000      1.00000000      1.00000000      1.00000000</v>
   <i type="logical" name="LCORR"> T  </i>
  </separator>
  <i type="logical" name="GGA_COMPAT"> T  </i>
  <i type="logical" name="LBERRY"> F  </i>
  <i type="int" name="ICORELEVEL">     0</i>
  <i type="logical" name="LDAU"> T  </i>
  <v type="int" name="LDAUTYPE">     2</v>
  <v type="int" name="LDAUL">     0</v>
  <v name="LDAUU">      0.00000000</v>
  <v name="LDAUJ">      0.00000000</v>
  <i type="int" name="LDAUPRINT">     1</i>
  <i type="int" name="I_CONSTRAINED_M">     0</i>
  <separator name="electronic exchange-correlation" >
   <i type="string" name="GGA">--</i>
   <i type="int" name="VOSKOWN">     0</i>
   <i type="logical" name="LHFCALC"> F  </i>
   <i type="string" name="PRECFOCK"></i>
   <i type="logical" name="LSYMGRAD"> F  </i>
   <i type="logical" name="LHFONE"> F  </i>
   <i type="logical" name="LRHFCALC"> F  </i>
   <i type="logical" name="LTHOMAS"> F  </i>
   <i type="logical" name="LMODELHF"> F  </i>
   <i name="ENCUT4O">     -1.00000000</i>
   <i type="int" name="EXXOEP">     0</i>
   <i type="int" name="FOURORBIT">     0</i>
   <i name="AEXX">      0.00000000</i>
   <i name="HFALPHA">      0.00000000</i>
   <i name="MCALPHA">      0.00000000</i>
   <i name="ALDAX">      1.00000000</i>
   <i name="AGGAX">      1.00000000</i>
   <i name="ALDAC">      1.00000000</i>
   <i name="AGGAC">      1.00000000</i>
   <i type="int" name="NKREDX">     1</i>
   <i type="int" name="NKREDY">     1</i>
   <i type="int" name="NKREDZ">     1</i>
   <i type="logical" name="SHIFTRED"> F  </i>
   <i type="logical" name="ODDONLY"> F  </i>
   <i type="logical" name="EVENONLY"> F  </i>
   <i type="int" name="LMAXFOCK">     0</i>
   <i type="int" name="NMAXFOCKAE">     0</i>
   <i type="logical" name="LFOCKAEDFT"> F  </i>
   <i name="HFSCREEN">      0.00000000</i>
   <i name="HFSCREENC">      0.00000000</i>
   <i type="int" name="NBANDSGWLOW">     0</i>
  </separator>
  <separator name="vdW DFT" >
   <i type="logical" name="LUSE_VDW"> F  </i>
   <i name="Zab_VDW">     -0.84910000</i>
   <i name="PARAM1">      0.12340000</i>
   <i name="PARAM2">      1.00000000</i>
   <i name="PARAM3">      0.00000000</i>
  </separator>
  <separator name="model GW" >
   <i type="int" name="MODEL_GW">     0</i>
   <i name="MODEL_EPS0">      7.93555072</i>
   <i name="MODEL_ALPHA">      1.00000000</i>
  </separator>
  <separator name="linear response parameters" >
   <i type="logical" name="LEPSILON"> F  </i>
   <i type="logical" name="LRPA"> F  </i>
   <i type="logical" name="LNABLA"> F  </i>
   <i type="logical" name="LVEL"> F  </i>
   <i type="int" name="KINTER">     0</i>
   <i name="CSHIFT">      0.10000000</i>
   <i name="OMEGAMAX">     -1.00000000</i>
   <i name="DEG_THRESHOLD">      0.00200000</i>
  </separator>
  <separator name="orbital magnetization" >
   <i type="logical" name="NUCIND"> F  </i>
   <v name="MAGPOS">      0.00000000      0.00000000      0.00000000</v>
   <i type="logical" name="LNICSALL"> T  </i>
   <i type="logical" name="ORBITALMAG"> F  </i>
   <i type="logical" name="LMAGBLOCH"> F  </i>
   <i type="logical" name="LCHIMAG"> F  </i>
   <i type="logical" name="LGAUGE"> T  </i>
   <i type="int" name="MAGATOM">     0</i>
   <v name="MAGDIPOL">      0.00000000      0.00000000      0.00000000</v>
   <v name="AVECCONST">      0.00000000      0.00000000      0.00000000</v>
  </separator>
  <separator name="response functions" >
   <i type="logical" name="LADDER"> F  </i>
   <i type="logical" name="LFXC"> F  </i>
   <i type="logical" name="LHARTREE"> T  </i>
   <i type="int" name="IBSE">     0</i>
   <v type="int" name="KPOINT">    -1     0     0     0</v>
   <i type="logical" name="LTCTE"> F  </i>
   <i type="logical" name="LTETE"> F  </i>
   <i type="logical" name="LTRIPLET"> F  </i>
   <i type="logical" name="LFXCEPS"> F  </i>
   <i type="logical" name="LFXHEG"> F  </i>
   <i type="int" name="NATURALO">     0</i>
   <i type="logical" name="L2ORDER"> F  </i>
   <i type="logical" name="LUSEW"> F  </i>
   <i name="ENCUTGW">     -2.00000000</i>
   <i name="ENCUTGWSOFT">     -2.00000000</i>
   <i name="ENCUTLF">     -1.00000000</i>
   <i type="int" name="LMAXMP2">    -1</i>
   <i name="SCISSOR">      0.00000000</i>
   <i type="int" name="NOMEGA">     0</i>
   <i type="int" name="NOMEGAR">     0</i>
   <i type="int" name="NBANDSGW">    -1</i>
   <i type="int" name="NBANDSO">    -1</i>
   <i type="int" name="NBANDSV">    -1</i>
   <i type="int" name="NELM">    40</i>
   <i type="int" name="NELMHF">     1</i>
   <i type="int" name="DIM">     3</i>
   <i type="int" name="ANTIRES">     0</i>
   <i name="OMEGAMAX">    -30.00000000</i>
   <i name="OMEGAMIN">    -30.00000000</i>
   <i name="OMEGATL">   -200.00000000</i>
   <i type="int" name="OMEGAGRID">     0</i>
   <i name="CSHIFT">     -0.10000000</i>
   <i type="logical" name="SELFENERGY"> F  </i>
   <i type="logical" name="LSPECTRAL"> F  </i>
   <i type="logical" name="LSPECTRALGW"> F  </i>
   <i type="logical" name="LSINGLES"> F  </i>
   <i type="logical" name="LFERMIGW"> F  </i>
   <i type="logical" name="ODDONLYGW"> F  </i>
   <i type="logical" name="EVENONLYGW"> F  </i>
   <i type="int" name="NKREDLFX">     1</i>
   <i type="int" name="NKREDLFY">     1</i>
   <i type="int" name="NKREDLFZ">     1</i>
   <i type="int" name="MAXMEM">  1800</i>
   <i type="int" name="TELESCOPE">     0</i>
   <i type="int" name="TAUPAR">     1</i>
   <i type="int" name="OMEGAPAR">    -1</i>
   <i name="LAMBDA">      1.00000000</i>
  </separator>
  <separator name="External order field" >
   <i name="OFIELD_KAPPA">      0.00000000</i>
   <v name="OFIELD_K">      0.00000000      0.00000000      0.00000000</v>
   <i name="OFIELD_Q6_NEAR">      0.00000000</i>
   <i name="OFIELD_Q6_FAR">      0.00000000</i>
   <i name="OFIELD_A">      0.00000000</i>
  </separator>
 </parameters>
 <atominfo>
  <atoms>     152 </atoms>
  <types>       4 </types>
  <array name="atoms" >
   <dimension dim="1">ion</dimension>
   <field type="string">element</field>
   <field type="int">atomtype</field>
   <set>
    <rc><c>Sr</c><c>   1</c></rc>
    <rc><c>Sr</c><c>   1</c></rc>
    <rc><c>Sr</c><c>   1</c></rc>
    <rc><c>Sr</c><c>   1</c></rc>
    <rc><c>Sr</c><c>   1</c></rc>
    <rc><c>Sr</c><c>   1</c></rc>
    <rc><c>Sr</c><c>   1</c></rc>
    <rc><c>Sr</c><c>   1</c></rc>
    <rc><c>Sr</c><c>   1</c></rc>
    <rc><c>Sr</c><c>   1</c></rc>
    <rc><c>Sr</c><c>   1</c></rc>
    <rc><c>Sr</c><c>   1</c></rc>
    <rc><c>Sr</c><c>   1</c></rc>
    <rc><c>Sr</c><c>   1</c></rc>
    <rc><c>Sr</c><c>   1</c></rc>
    <rc><c>Sr</c><c>   1</c></rc>
    <rc><c>Sr</c><c>   1</c></rc>
    <rc><c>Sr</c><c>   1</c></rc>
    <rc><c>Sr</c><c>   1</c></rc>
    <rc><c>Sr</c><c>   1</c></rc>
    <rc><c>Sr</c><c>   1</c></rc>
    <rc><c>Sr</c><c>   1</c></rc>
    <rc><c>Sr</c><c>   1</c></rc>
    <rc><c>Sr</c><c>   1</c></rc>
    <rc><c>Sr</c><c>   1</c></rc>
    <rc><c>Sr</c><c>   1</c></rc>
    <rc><c>Sr</c><c>   1</c></rc>
    <rc><c>Sr</c><c>   1</c></rc>
    <rc><c>Sr</c><c>   1</c></rc>
    <rc><c>Sr</c><c>   1</c></rc>
    <rc><c>Sr</c><c>   1</c></rc>
    <rc><c>Sr</c><c>   1</c></rc>
    <rc><c>Ti</c><c>   2</c></rc>
    <rc><c>Ti</c><c>   2</c></rc>
    <rc><c>Ti</c><c>   2</c></rc>
    <rc><c>Ti</c><c>   2</c></rc>
    <rc><c>Ti</c><c>   2</c></rc>
    <rc><c>Ti</c><c>   2</c></rc>
    <rc><c>Ti</c><c>   2</c></rc>
    <rc><c>Ti</c><c>   2</c></rc>
    <rc><c>Ti</c><c>   2</c></rc>
    <rc><c>Ti</c><c>   2</c></rc>
    <rc><c>Ti</c><c>   2</c></rc>
    <rc><c>Ti</c><c>   2</c></rc>
    <rc><c>Ti</c><c>   2</c></rc>
    <rc><c>Ti</c><c>   2</c></rc>
    <rc><c>Ti</c><c>   2</c></rc>
    <rc><c>Ti</c><c>   2</c></rc>
    <rc><c>Fe</c><c>   3</c></rc>
    <rc><c>Fe</c><c>   3</c></rc>
    <rc><c>Fe</c><c>   3</c></rc>
    <rc><c>Fe</c><c>   3</c></rc>
    <rc><c>Fe</c><c>   3</c></rc>
    <rc><c>Fe</c><c>   3</c></rc>
    <rc><c>Fe</c><c>   3</c></rc>
    <rc><c>Fe</c><c>   3</c></rc>
    <rc><c>Fe</c><c>   3</c></rc>
    <rc><c>Fe</c><c>   3</c></rc>
    <rc><c>Fe</c><c>   3</c></rc>
    <rc><c>Fe</c><c>   3</c></rc>
    <rc><c>Fe</c><c>   3</c></rc>
    <rc><c>Fe</c><c>   3</c></rc>
    <rc><c>Fe</c><c>   3</c></rc>
    <rc><c>Fe</c><c>   3</c></rc>
    <rc><c>O </c><c>   4</c></rc>
    <rc><c>O </c><c>   4</c></rc>
    <rc><c>O </c><c>   4</c></rc>
    <rc><c>O </c><c>   4</c></rc>
    <rc><c>O </c><c>   4</c></rc>
    <rc><c>O </c><c>   4</c></rc>
    <rc><c>O </c><c>   4</c></rc>
    <rc><c>O </c><c>   4</c></rc>
    <rc><c>O </c><c>   4</c></rc>
    <rc><c>O </c><c>   4</c></rc>
    <rc><c>O </c><c>   4</c></rc>
    <rc><c>O </c><c>   4</c></rc>
    <rc><c>O </c><c>   4</c></rc>
    <rc><c>O </c><c>   4</c></rc>
    <rc><c>O </c><c>   4</c></rc>
    <rc><c>O </c><c>   4</c></rc>
    <rc><c>O </c><c>   4</c></rc>
    <rc><c>O </c><c>   4</c></rc>
    <rc><c>O </c><c>   4</c></rc>
    <rc><c>O </c><c>   4</c></rc>
    <rc><c>O </c><c>   4</c></rc>
    <rc><c>O </c><c>   4</c></rc>
    <rc><c>O </c><c>   4</c></rc>
    <rc><c>O </c><c>   4</c></rc>
    <rc><c>O </c><c>   4</c></rc>
    <rc><c>O </c><c>   4</c></rc>
    <rc><c>O </c><c>   4</c></rc>
    <rc><c>O </c><c>   4</c></rc>
    <rc><c>O </c><c>   4</c></rc>
    <rc><c>O </c><c>   4</c></rc>
    <rc><c>O </c><c>   4</c></rc>
    <rc><c>O </c><c>   4</c></rc>
    <rc><c>O </c><c>   4</c></rc>
    <rc><c>O </c><c>   4</c></rc>
    <rc><c>O </c><c>   4</c></rc>
    <rc><c>O </c><c>   4</c></rc>
    <rc><c>O </c><c>   4</c></rc>
    <rc><c>O </c><c>   4</c></rc>
    <rc><c>O </c><c>   4</c></rc>
    <rc><c>O </c><c>   4</c></rc>
    <rc><c>O </c><c>   4</c></rc>
    <rc><c>O </c><c>   4</c></rc>
    <rc><c>O </c><c>   4</c></rc>
    <rc><c>O </c><c>   4</c></rc>
    <rc><c>O </c><c>   4</c></rc>
    <rc><c>O </c><c>   4</c></rc>
    <rc><c>O </c><c>   4</c></rc>
    <rc><c>O </c><c>   4</c></rc>
    <rc><c>O </c><c>   4</c></rc>
    <rc><c>O </c><c>   4</c></rc>
    <rc><c>O </c><c>   4</c></rc>
    <rc><c>O </c><c>   4</c></rc>
    <rc><c>O </c><c>   4</c></rc>
    <rc><c>O </c><c>   4</c></rc>
    <rc><c>O </c><c>   4</c></rc>
    <rc><c>O </c><c>   4</c></rc>
    <rc><c>O </c><c>   4</c></rc>
    <rc><c>O </c><c>   4</c></rc>
    <rc><c>O </c><c>   4</c></rc>
    <rc><c>O </c><c>   4</c></rc>
    <rc><c>O </c><c>   4</c></rc>
    <rc><c>O </c><c>   4</c></rc>
    <rc><c>O </c><c>   4</c></rc>
    <rc><c>O </c><c>   4</c></rc>
    <rc><c>O </c><c>   4</c></rc>
    <rc><c>O </c><c>   4</c></rc>
    <rc><c>O </c><c>   4</c></rc>
    <rc><c>O </c><c>   4</c></rc>
    <rc><c>O </c><c>   4</c></rc>
    <rc><c>O </c><c>   4</c></rc>
    <rc><c>O </c><c>   4</c></rc>
    <rc><c>O </c><c>   4</c></rc>
    <rc><c>O </c><c>   4</c></rc>
    <rc><c>O </c><c>   4</c></rc>
    <rc><c>O </c><c>   4</c></rc>
    <rc><c>O </c><c>   4</c></rc>
    <rc><c>O </c><c>   4</c></rc>
    <rc><c>O </c><c>   4</c></rc>
    <rc><c>O </c><c>   4</c></rc>
    <rc><c>O </c><c>   4</c></rc>
    <rc><c>O </c><c>   4</c></rc>
    <rc><c>O </c><c>   4</c></rc>
    <rc><c>O </c><c>   4</c></rc>
    <rc><c>O </c><c>   4</c></rc>
    <rc><c>O </c><c>   4</c></rc>
    <rc><c>O </c><c>   4</c></rc>
    <rc><c>O </c><c>   4</c></rc>
    <rc><c>O </c><c>   4</c></rc>
   </set>
  </array>
  <array name="atomtypes" >
   <dimension dim="1">type</dimension>
   <field type="int">atomspertype</field>
   <field type="string">element</field>
   <field>mass</field>
   <field>valence</field>
   <field type="string">pseudopotential</field>
   <set>
    <rc><c>  32</c><c>Sr</c><c>     87.62000000</c><c>     10.00000000</c><c>  PAW_PBE Sr_sv 07Sep2000               </c></rc>
    <rc><c>  16</c><c>Ti</c><c>     47.88000000</c><c>      4.00000000</c><c>  PAW_PBE Ti 08Apr2002                  </c></rc>
    <rc><c>  16</c><c>Fe</c><c>     55.84700000</c><c>      8.00000000</c><c>  PAW_PBE Fe 06Sep2000                  </c></rc>
    <rc><c>  88</c><c>O </c><c>     16.00000000</c><c>      6.00000000</c><c>  PAW_PBE O 08Apr2002                   </c></rc>
   </set>
  </array>
 </atominfo>
 <structure name="initialpos" >
  <crystal>
   <varray name="basis" >
    <v>      11.24329948       0.00000000       0.00000000 </v>
    <v>       0.00000000      11.31899374       0.00000000 </v>
    <v>       0.00000000       0.00000000      15.79675241 </v>
   </varray>
   <i name="volume">   2010.33951683 </i>
   <varray name="rec_basis" >
    <v>       0.08894186       0.00000000       0.00000000 </v>
    <v>       0.00000000       0.08834708       0.00000000 </v>
    <v>       0.00000000       0.00000000       0.06330415 </v>
   </varray>
  </crystal>
  <varray name="positions" >
   <v>       0.99884053       0.25505356       0.11359400 </v>
   <v>       0.99742320       0.24008530       0.61881470 </v>
   <v>       0.99795583       0.73841982       0.11875553 </v>
   <v>       0.00044043       0.75263841       0.61378722 </v>
   <v>       0.49884053       0.25505356       0.11359400 </v>
   <v>       0.49742320       0.24008530       0.61881470 </v>
   <v>       0.49795583       0.73841982       0.11875553 </v>
   <v>       0.50044043       0.75263841       0.61378722 </v>
   <v>       0.00044043       0.25263841       0.38621278 </v>
   <v>       0.99795583       0.23841982       0.88124447 </v>
   <v>       0.99742320       0.74008530       0.38118530 </v>
   <v>       0.99884053       0.75505356       0.88640600 </v>
   <v>       0.50044043       0.25263841       0.38621278 </v>
   <v>       0.49795583       0.23841982       0.88124447 </v>
   <v>       0.49742320       0.74008530       0.38118530 </v>
   <v>       0.49884053       0.75505356       0.88640600 </v>
   <v>       0.25044043       0.99736159       0.11378722 </v>
   <v>       0.24795583       0.01158018       0.61875553 </v>
   <v>       0.24742320       0.50991470       0.11881470 </v>
   <v>       0.24884053       0.49494644       0.61359400 </v>
   <v>       0.75044043       0.99736159       0.11378722 </v>
   <v>       0.74795583       0.01158018       0.61875553 </v>
   <v>       0.74742320       0.50991470       0.11881470 </v>
   <v>       0.74884053       0.49494644       0.61359400 </v>
   <v>       0.24884053       0.99494644       0.38640600 </v>
   <v>       0.24742320       0.00991470       0.88118530 </v>
   <v>       0.24795583       0.51158018       0.38124447 </v>
   <v>       0.25044043       0.49736159       0.88621278 </v>
   <v>       0.74884053       0.99494644       0.38640600 </v>
   <v>       0.74742320       0.00991470       0.88118530 </v>
   <v>       0.74795583       0.51158018       0.38124447 </v>
   <v>       0.75044043       0.49736159       0.88621278 </v>
   <v>       0.25177745       0.24771766       0.74881853 </v>
   <v>       0.24763019       0.24933580       0.00106041 </v>
   <v>       0.74763019       0.74933580       0.99893959 </v>
   <v>       0.75177745       0.24771766       0.74881853 </v>
   <v>       0.00177745       0.00228234       0.75118147 </v>
   <v>       0.24763019       0.74933580       0.99893959 </v>
   <v>       0.75177745       0.74771766       0.25118147 </v>
   <v>       0.00177745       0.50228234       0.24881853 </v>
   <v>       0.50177745       0.00228234       0.75118147 </v>
   <v>       0.74763019       0.24933580       0.00106041 </v>
   <v>       0.25177745       0.74771766       0.25118147 </v>
   <v>       0.50177745       0.50228234       0.24881853 </v>
   <v>       0.49763019       0.50066420       0.50106041 </v>
   <v>       0.99763019       0.50066420       0.50106041 </v>
   <v>       0.49763019       0.00066420       0.49893959 </v>
   <v>       0.99763019       0.00066420       0.49893959 </v>
   <v>       0.24770122       0.74841169       0.50133594 </v>
   <v>       0.74770122       0.74841169       0.50133594 </v>
   <v>       0.24770122       0.24841169       0.49866406 </v>
   <v>       0.74770122       0.24841169       0.49866406 </v>
   <v>       0.75847702       0.78302068       0.75045529 </v>
   <v>       0.49770122       0.50158831       0.99866406 </v>
   <v>       0.00847702       0.96697932       0.25045529 </v>
   <v>       0.99770122       0.00158831       0.00133594 </v>
   <v>       0.50847702       0.96697932       0.25045529 </v>
   <v>       0.75847702       0.28302068       0.24954471 </v>
   <v>       0.25847702       0.28302068       0.24954471 </v>
   <v>       0.99770122       0.50158831       0.99866406 </v>
   <v>       0.49770122       0.00158831       0.00133594 </v>
   <v>       0.25847702       0.78302068       0.75045529 </v>
   <v>       0.00847702       0.46697932       0.74954471 </v>
   <v>       0.50847702       0.46697932       0.74954471 </v>
   <v>       0.98811778       0.03098349       0.14206085 </v>
   <v>       0.00006874       0.00319848       0.62437305 </v>
   <v>       0.00026443       0.50212817       0.12568375 </v>
   <v>       0.99145647       0.51859710       0.63522893 </v>
   <v>       0.48811778       0.03098349       0.14206085 </v>
   <v>       0.50006874       0.00319848       0.62437305 </v>
   <v>       0.50026443       0.50212817       0.12568375 </v>
   <v>       0.49145647       0.51859710       0.63522893 </v>
   <v>       0.99145647       0.01859710       0.36477107 </v>
   <v>       0.00026443       0.00212817       0.87431625 </v>
   <v>       0.00006874       0.50319848       0.37562695 </v>
   <v>       0.98811778       0.53098349       0.85793915 </v>
   <v>       0.49145647       0.01859710       0.36477107 </v>
   <v>       0.50026443       0.00212817       0.87431625 </v>
   <v>       0.50006874       0.50319848       0.37562695 </v>
   <v>       0.48811778       0.53098349       0.85793915 </v>
   <v>       0.23811778       0.21901651       0.35793915 </v>
   <v>       0.25006874       0.24680152       0.87562695 </v>
   <v>       0.25026443       0.74787183       0.37431625 </v>
   <v>       0.24145647       0.73140290       0.86477107 </v>
   <v>       0.73811778       0.21901651       0.35793915 </v>
   <v>       0.75006874       0.24680152       0.87562695 </v>
   <v>       0.75026443       0.74787183       0.37431625 </v>
   <v>       0.74145647       0.73140290       0.86477107 </v>
   <v>       0.24145647       0.23140290       0.13522893 </v>
   <v>       0.25026443       0.24787183       0.62568375 </v>
   <v>       0.25006874       0.74680152       0.12437305 </v>
   <v>       0.23811778       0.71901651       0.64206085 </v>
   <v>       0.74145647       0.23140290       0.13522893 </v>
   <v>       0.75026443       0.24787183       0.62568375 </v>
   <v>       0.75006874       0.74680152       0.12437305 </v>
   <v>       0.73811778       0.71901651       0.64206085 </v>
   <v>       0.15335643       0.41049538       0.25097431 </v>
   <v>       0.41540092       0.34326510       0.25105390 </v>
   <v>       0.65335643       0.41049538       0.25097431 </v>
   <v>       0.91540092       0.34326510       0.25105390 </v>
   <v>       0.10422726       0.64996981       0.24994699 </v>
   <v>       0.35422726       0.60003019       0.25005301 </v>
   <v>       0.60422726       0.64996981       0.24994699 </v>
   <v>       0.85422726       0.60003019       0.25005301 </v>
   <v>       0.16540092       0.90673490       0.24894610 </v>
   <v>       0.40335643       0.83950462       0.24902569 </v>
   <v>       0.66540092       0.90673490       0.24894610 </v>
   <v>       0.90335643       0.83950462       0.24902569 </v>
   <v>       0.12633683       0.11884731       0.49939539 </v>
   <v>       0.37789799       0.12921907       0.49904188 </v>
   <v>       0.62633683       0.11884731       0.49939539 </v>
   <v>       0.87789799       0.12921907       0.49904188 </v>
   <v>       0.11621607       0.37052460       0.50301845 </v>
   <v>       0.36741121       0.37986727       0.49541296 </v>
   <v>       0.61621607       0.37052460       0.50301845 </v>
   <v>       0.86741121       0.37986727       0.49541296 </v>
   <v>       0.12633683       0.61884731       0.50060461 </v>
   <v>       0.37789799       0.62921907       0.50095812 </v>
   <v>       0.62633683       0.61884731       0.50060461 </v>
   <v>       0.87789799       0.62921907       0.50095812 </v>
   <v>       0.11621607       0.87052460       0.49698155 </v>
   <v>       0.36741121       0.87986727       0.50458704 </v>
   <v>       0.61621607       0.87052460       0.49698155 </v>
   <v>       0.86741121       0.87986727       0.50458704 </v>
   <v>       0.10422726       0.14996981       0.75005301 </v>
   <v>       0.35422726       0.10003019       0.74994699 </v>
   <v>       0.60422726       0.14996981       0.75005301 </v>
   <v>       0.85422726       0.10003019       0.74994699 </v>
   <v>       0.16540092       0.40673490       0.75105390 </v>
   <v>       0.40335643       0.33950462       0.75097431 </v>
   <v>       0.66540092       0.40673490       0.75105390 </v>
   <v>       0.90335643       0.33950462       0.75097431 </v>
   <v>       0.15335643       0.91049538       0.74902569 </v>
   <v>       0.41540092       0.84326510       0.74894610 </v>
   <v>       0.65335643       0.91049538       0.74902569 </v>
   <v>       0.91540092       0.84326510       0.74894610 </v>
   <v>       0.12789799       0.12078093       0.00095812 </v>
   <v>       0.37633683       0.13115269       0.00060461 </v>
   <v>       0.62789799       0.12078093       0.00095812 </v>
   <v>       0.87633683       0.13115269       0.00060461 </v>
   <v>       0.11741121       0.37013273       0.99541296 </v>
   <v>       0.36621607       0.37947540       0.00301845 </v>
   <v>       0.61741121       0.37013273       0.99541296 </v>
   <v>       0.86621607       0.37947540       0.00301845 </v>
   <v>       0.12789799       0.62078093       0.99904188 </v>
   <v>       0.37633683       0.63115269       0.99939539 </v>
   <v>       0.62789799       0.62078093       0.99904188 </v>
   <v>       0.87633683       0.63115269       0.99939539 </v>
   <v>       0.11741121       0.87013273       0.00458704 </v>
   <v>       0.36621607       0.87947540       0.99698155 </v>
   <v>       0.61741121       0.87013273       0.00458704 </v>
   <v>       0.86621607       0.87947540       0.99698155 </v>
  </varray>
 </structure>
 <calculation>
  <scstep>
   <time name="dav">   73.84   73.84</time>
   <time name="total">   75.56   75.63</time>
   <energy>
    <i name="alphaZ">   5602.15694821 </i>
    <i name="ewald"> -61851.60043792 </i>
    <i name="hartreedc"> -17709.53650264 </i>
    <i name="XCdc">   3186.37816028 </i>
    <i name="pawpsdc"> 115948.57241315 </i>
    <i name="pawaedc">-115152.03877388 </i>
    <i name="eentropy">     -0.00000000 </i>
    <i name="bandstr">  -7132.35624202 </i>
    <i name="atom">  76050.17612637 </i>
    <i name="e_fr_energy">  -1058.24830845 </i>
    <i name="e_wo_entrp">  -1058.24830845 </i>
    <i name="e_0_energy">  -1058.24830845 </i>
   </energy>
  </scstep>
  <scstep>
   <time name="diag">    8.32    8.32</time>
   <time name="diis">    8.38    8.37</time>
   <time name="orth">    4.70    4.71</time>
   <time name="total">   23.15   23.19</time>
   <energy>
    <i name="e_fr_energy">  -1058.24830599 </i>
    <i name="e_wo_entrp">  -1058.24830599 </i>
    <i name="e_0_energy">  -1058.24830599 </i>
   </energy>
  </scstep>
  <scstep>
   <time name="diag">    8.30    8.30</time>
   <time name="diis">    7.80    7.80</time>
   <time name="orth">    4.69    4.69</time>
   <time name="total">   22.56   22.59</time>
   <energy>
    <i name="e_fr_energy">  -1058.24830537 </i>
    <i name="e_wo_entrp">  -1058.24830537 </i>
    <i name="e_0_energy">  -1058.24830537 </i>
   </energy>
  </scstep>
  <scstep>
   <time name="diag">    8.30    8.32</time>
   <time name="diis">    7.54    7.54</time>
   <time name="orth">    4.71    4.71</time>
   <time name="total">   22.30   22.37</time>
   <energy>
    <i name="e_fr_energy">  -1058.24830778 </i>
    <i name="e_wo_entrp">  -1058.24830778 </i>
    <i name="e_0_energy">  -1058.24830778 </i>
   </energy>
  </scstep>
  <scstep>
   <time name="diag">    8.31    8.31</time>
   <time name="diis">    7.11    7.11</time>
   <time name="orth">    4.70    4.70</time>
   <time name="total">   21.89   21.95</time>
   <energy>
    <i name="e_fr_energy">  -1058.24830992 </i>
    <i name="e_wo_entrp">  -1058.24830992 </i>
    <i name="e_0_energy">  -1058.24830992 </i>
   </energy>
  </scstep>
  <scstep>
   <time name="diag">    8.32    8.32</time>
   <time name="diis">    6.54    6.54</time>
   <time name="orth">    4.70    4.70</time>
   <time name="total">   21.33   21.36</time>
   <energy>
    <i name="e_fr_energy">  -1058.24831004 </i>
    <i name="e_wo_entrp">  -1058.24831004 </i>
    <i name="e_0_energy">  -1058.24831004 </i>
   </energy>
  </scstep>
  <scstep>
   <time name="diag">    8.33    8.33</time>
   <time name="diis">    6.25    6.26</time>
   <time name="orth">    4.70    4.71</time>
   <time name="total">   21.04   21.11</time>
   <energy>
    <i name="e_fr_energy">  -1058.24831005 </i>
    <i name="e_wo_entrp">  -1058.24831005 </i>
    <i name="e_0_energy">  -1058.24831005 </i>
   </energy>
  </scstep>
  <scstep>
   <time name="diag">    8.33    8.33</time>
   <time name="diis">    5.98    5.98</time>
   <time name="orth">    4.73    4.73</time>
   <time name="total">   19.62   19.65</time>
   <energy>
    <i name="alphaZ">   5602.15694821 </i>
    <i name="ewald"> -61851.60043792 </i>
    <i name="hartreedc"> -17709.50958666 </i>
    <i name="XCdc">   3186.37408098 </i>
    <i name="pawpsdc"> 115940.85263027 </i>
    <i name="pawaedc">-115144.32491389 </i>
    <i name="eentropy">     -0.00000000 </i>
    <i name="bandstr">  -7132.37315738 </i>
    <i name="atom">  76050.17612637 </i>
    <i name="e_fr_energy">  -1058.24831004 </i>
    <i name="e_wo_entrp">  -1058.24831004 </i>
    <i name="e_0_energy">  -1058.24831004 </i>
   </energy>
  </scstep>
  <structure>
   <crystal>
    <varray name="basis" >
     <v>      11.24329948       0.00000000       0.00000000 </v>
     <v>       0.00000000      11.31899374       0.00000000 </v>
     <v>       0.00000000       0.00000000      15.79675241 </v>
    </varray>
    <i name="volume">   2010.33951683 </i>
    <varray name="rec_basis" >
     <v>       0.08894186       0.00000000       0.00000000 </v>
     <v>       0.00000000       0.08834708       0.00000000 </v>
     <v>       0.00000000       0.00000000       0.06330415 </v>
    </varray>
   </crystal>
   <varray name="positions" >
    <v>       0.99884053       0.25505356       0.11359400 </v>
    <v>       0.99742320       0.24008530       0.61881470 </v>
    <v>       0.99795583       0.73841982       0.11875553 </v>
    <v>       0.00044043       0.75263841       0.61378722 </v>
    <v>       0.49884053       0.25505356       0.11359400 </v>
    <v>       0.49742320       0.24008530       0.61881470 </v>
    <v>       0.49795583       0.73841982       0.11875553 </v>
    <v>       0.50044043       0.75263841       0.61378722 </v>
    <v>       0.00044043       0.25263841       0.38621278 </v>
    <v>       0.99795583       0.23841982       0.88124447 </v>
    <v>       0.99742320       0.74008530       0.38118530 </v>
    <v>       0.99884053       0.75505356       0.88640600 </v>
    <v>       0.50044043       0.25263841       0.38621278 </v>
    <v>       0.49795583       0.23841982       0.88124447 </v>
    <v>       0.49742320       0.74008530       0.38118530 </v>
    <v>       0.49884053       0.75505356       0.88640600 </v>
    <v>       0.25044043       0.99736159       0.11378722 </v>
    <v>       0.24795583       0.01158018       0.61875553 </v>
    <v>       0.24742320       0.50991470       0.11881470 </v>
    <v>       0.24884053       0.49494644       0.61359400 </v>
    <v>       0.75044043       0.99736159       0.11378722 </v>
    <v>       0.74795583       0.01158018       0.61875553 </v>
    <v>       0.74742320       0.50991470       0.11881470 </v>
    <v>       0.74884053       0.49494644       0.61359400 </v>
    <v>       0.24884053       0.99494644       0.38640600 </v>
    <v>       0.24742320       0.00991470       0.88118530 </v>
    <v>       0.24795583       0.51158018       0.38124447 </v>
    <v>       0.25044043       0.49736159       0.88621278 </v>
    <v>       0.74884053       0.99494644       0.38640600 </v>
    <v>       0.74742320       0.00991470       0.88118530 </v>
    <v>       0.74795583       0.51158018       0.38124447 </v>
    <v>       0.75044043       0.49736159       0.88621278 </v>
    <v>       0.25177745       0.24771766       0.74881853 </v>
    <v>       0.24763019       0.24933580       0.00106041 </v>
    <v>       0.74763019       0.74933580       0.99893959 </v>
    <v>       0.75177745       0.24771766       0.74881853 </v>
    <v>       0.00177745       0.00228234       0.75118147 </v>
    <v>       0.24763019       0.74933580       0.99893959 </v>
    <v>       0.75177745       0.74771766       0.25118147 </v>
    <v>       0.00177745       0.50228234       0.24881853 </v>
    <v>       0.50177745       0.00228234       0.75118147 </v>
    <v>       0.74763019       0.24933580       0.00106041 </v>
    <v>       0.25177745       0.74771766       0.25118147 </v>
    <v>       0.50177745       0.50228234       0.24881853 </v>
    <v>       0.49763019       0.50066420       0.50106041 </v>
    <v>       0.99763019       0.50066420       0.50106041 </v>
    <v>       0.49763019       0.00066420       0.49893959 </v>
    <v>       0.99763019       0.00066420       0.49893959 </v>
    <v>       0.24770122       0.74841169       0.50133594 </v>
    <v>       0.74770122       0.74841169       0.50133594 </v>
    <v>       0.24770122       0.24841169       0.49866406 </v>
    <v>       0.74770122       0.24841169       0.49866406 </v>
    <v>       0.75847702       0.78302068       0.75045529 </v>
    <v>       0.49770122       0.50158831       0.99866406 </v>
    <v>       0.00847702       0.96697932       0.25045529 </v>
    <v>       0.99770122       0.00158831       0.00133594 </v>
    <v>       0.50847702       0.96697932       0.25045529 </v>
    <v>       0.75847702       0.28302068       0.24954471 </v>
    <v>       0.25847702       0.28302068       0.24954471 </v>
    <v>       0.99770122       0.50158831       0.99866406 </v>
    <v>       0.49770122       0.00158831       0.00133594 </v>
    <v>       0.25847702       0.78302068       0.75045529 </v>
    <v>       0.00847702       0.46697932       0.74954471 </v>
    <v>       0.50847702       0.46697932       0.74954471 </v>
    <v>       0.98811778       0.03098349       0.14206085 </v>
    <v>       0.00006874       0.00319848       0.62437305 </v>
    <v>       0.00026443       0.50212817       0.12568375 </v>
    <v>       0.99145647       0.51859710       0.63522893 </v>
    <v>       0.48811778       0.03098349       0.14206085 </v>
    <v>       0.50006874       0.00319848       0.62437305 </v>
    <v>       0.50026443       0.50212817       0.12568375 </v>
    <v>       0.49145647       0.51859710       0.63522893 </v>
    <v>       0.99145647       0.01859710       0.36477107 </v>
    <v>       0.00026443       0.00212817       0.87431625 </v>
    <v>       0.00006874       0.50319848       0.37562695 </v>
    <v>       0.98811778       0.53098349       0.85793915 </v>
    <v>       0.49145647       0.01859710       0.36477107 </v>
    <v>       0.50026443       0.00212817       0.87431625 </v>
    <v>       0.50006874       0.50319848       0.37562695 </v>
    <v>       0.48811778       0.53098349       0.85793915 </v>
    <v>       0.23811778       0.21901651       0.35793915 </v>
    <v>       0.25006874       0.24680152       0.87562695 </v>
    <v>       0.25026443       0.74787183       0.37431625 </v>
    <v>       0.24145647       0.73140290       0.86477107 </v>
    <v>       0.73811778       0.21901651       0.35793915 </v>
    <v>       0.75006874       0.24680152       0.87562695 </v>
    <v>       0.75026443       0.74787183       0.37431625 </v>
    <v>       0.74145647       0.73140290       0.86477107 </v>
    <v>       0.24145647       0.23140290       0.13522893 </v>
    <v>       0.25026443       0.24787183       0.62568375 </v>
    <v>       0.25006874       0.74680152       0.12437305 </v>
    <v>       0.23811778       0.71901651       0.64206085 </v>
    <v>       0.74145647       0.23140290       0.13522893 </v>
    <v>       0.75026443       0.24787183       0.62568375 </v>
    <v>       0.75006874       0.74680152       0.12437305 </v>
    <v>       0.73811778       0.71901651       0.64206085 </v>
    <v>       0.15335643       0.41049538       0.25097431 </v>
    <v>       0.41540092       0.34326510       0.25105390 </v>
    <v>       0.65335643       0.41049538       0.25097431 </v>
    <v>       0.91540092       0.34326510       0.25105390 </v>
    <v>       0.10422726       0.64996981       0.24994699 </v>
    <v>       0.35422726       0.60003019       0.25005301 </v>
    <v>       0.60422726       0.64996981       0.24994699 </v>
    <v>       0.85422726       0.60003019       0.25005301 </v>
    <v>       0.16540092       0.90673490       0.24894610 </v>
    <v>       0.40335643       0.83950462       0.24902569 </v>
    <v>       0.66540092       0.90673490       0.24894610 </v>
    <v>       0.90335643       0.83950462       0.24902569 </v>
    <v>       0.12633683       0.11884731       0.49939539 </v>
    <v>       0.37789799       0.12921907       0.49904188 </v>
    <v>       0.62633683       0.11884731       0.49939539 </v>
    <v>       0.87789799       0.12921907       0.49904188 </v>
    <v>       0.11621607       0.37052460       0.50301845 </v>
    <v>       0.36741121       0.37986727       0.49541296 </v>
    <v>       0.61621607       0.37052460       0.50301845 </v>
    <v>       0.86741121       0.37986727       0.49541296 </v>
    <v>       0.12633683       0.61884731       0.50060461 </v>
    <v>       0.37789799       0.62921907       0.50095812 </v>
    <v>       0.62633683       0.61884731       0.50060461 </v>
    <v>       0.87789799       0.62921907       0.50095812 </v>
    <v>       0.11621607       0.87052460       0.49698155 </v>
    <v>       0.36741121       0.87986727       0.50458704 </v>
    <v>       0.61621607       0.87052460       0.49698155 </v>
    <v>       0.86741121       0.87986727       0.50458704 </v>
    <v>       0.10422726       0.14996981       0.75005301 </v>
    <v>       0.35422726       0.10003019       0.74994699 </v>
    <v>       0.60422726       0.14996981       0.75005301 </v>
    <v>       0.85422726       0.10003019       0.74994699 </v>
    <v>       0.16540092       0.40673490       0.75105390 </v>
    <v>       0.40335643       0.33950462       0.75097431 </v>
    <v>       0.66540092       0.40673490       0.75105390 </v>
    <v>       0.90335643       0.33950462       0.75097431 </v>
    <v>       0.15335643       0.91049538       0.74902569 </v>
    <v>       0.41540092       0.84326510       0.74894610 </v>
    <v>       0.65335643       0.91049538       0.74902569 </v>
    <v>       0.91540092       0.84326510       0.74894610 </v>
    <v>       0.12789799       0.12078093       0.00095812 </v>
    <v>       0.37633683       0.13115269       0.00060461 </v>
    <v>       0.62789799       0.12078093       0.00095812 </v>
    <v>       0.87633683       0.13115269       0.00060461 </v>
    <v>       0.11741121       0.37013273       0.99541296 </v>
    <v>       0.36621607       0.37947540       0.00301845 </v>
    <v>       0.61741121       0.37013273       0.99541296 </v>
    <v>       0.86621607       0.37947540       0.00301845 </v>
    <v>       0.12789799       0.62078093       0.99904188 </v>
    <v>       0.37633683       0.63115269       0.99939539 </v>
    <v>       0.62789799       0.62078093       0.99904188 </v>
    <v>       0.87633683       0.63115269       0.99939539 </v>
    <v>       0.11741121       0.87013273       0.00458704 </v>
    <v>       0.36621607       0.87947540       0.99698155 </v>
    <v>       0.61741121       0.87013273       0.00458704 </v>
    <v>       0.86621607       0.87947540       0.99698155 </v>
   </varray>
  </structure>
  <varray name="forces" >
   <v>      -0.00663195       0.00975800      -0.01765020 </v>
   <v>      -0.00347027       0.00802038      -0.00574096 </v>
   <v>      -0.00684334       0.00105506      -0.00440678 </v>
   <v>      -0.00294936      -0.01502878      -0.00955545 </v>
   <v>      -0.00663195       0.00975800      -0.01765020 </v>
   <v>      -0.00347027       0.00802038      -0.00574096 </v>
   <v>      -0.00684334       0.00105506      -0.00440678 </v>
   <v>      -0.00294936      -0.01502878      -0.00955545 </v>
   <v>      -0.00294936      -0.01502878       0.00955545 </v>
   <v>      -0.00684334       0.00105506       0.00440678 </v>
   <v>      -0.00347027       0.00802038       0.00574096 </v>
   <v>      -0.00663195       0.00975800       0.01765020 </v>
   <v>      -0.00294936      -0.01502878       0.00955545 </v>
   <v>      -0.00684334       0.00105506       0.00440678 </v>
   <v>      -0.00347027       0.00802038       0.00574096 </v>
   <v>      -0.00663195       0.00975800       0.01765020 </v>
   <v>      -0.00294936       0.01502878      -0.00955545 </v>
   <v>      -0.00684334      -0.00105506      -0.00440678 </v>
   <v>      -0.00347027      -0.00802038      -0.00574096 </v>
   <v>      -0.00663195      -0.00975800      -0.01765020 </v>
   <v>      -0.00294936       0.01502878      -0.00955545 </v>
   <v>      -0.00684334      -0.00105506      -0.00440678 </v>
   <v>      -0.00347027      -0.00802038      -0.00574096 </v>
   <v>      -0.00663195      -0.00975800      -0.01765020 </v>
   <v>      -0.00663195      -0.00975800       0.01765020 </v>
   <v>      -0.00347027      -0.00802038       0.00574096 </v>
   <v>      -0.00684334      -0.00105506       0.00440678 </v>
   <v>      -0.00294936       0.01502878       0.00955545 </v>
   <v>      -0.00663195      -0.00975800       0.01765020 </v>
   <v>      -0.00347027      -0.00802038       0.00574096 </v>
   <v>      -0.00684334      -0.00105506       0.00440678 </v>
   <v>      -0.00294936       0.01502878       0.00955545 </v>
   <v>       0.01077681       0.00922874      -0.01998135 </v>
   <v>       0.00809426      -0.02887691       0.00557028 </v>
   <v>       0.00809426      -0.02887691      -0.00557028 </v>
   <v>       0.01077681       0.00922874      -0.01998135 </v>
   <v>       0.01077681      -0.00922874       0.01998135 </v>
   <v>       0.00809426      -0.02887691      -0.00557028 </v>
   <v>       0.01077681       0.00922874       0.01998135 </v>
   <v>       0.01077681      -0.00922874      -0.01998135 </v>
   <v>       0.01077681      -0.00922874       0.01998135 </v>
   <v>       0.00809426      -0.02887691       0.00557028 </v>
   <v>       0.01077681       0.00922874       0.01998135 </v>
   <v>       0.01077681      -0.00922874      -0.01998135 </v>
   <v>       0.00809426       0.02887691       0.00557028 </v>
   <v>       0.00809426       0.02887691       0.00557028 </v>
   <v>       0.00809426       0.02887691      -0.00557028 </v>
   <v>       0.00809426       0.02887691      -0.00557028 </v>
   <v>       0.00236800      -0.02208600      -0.00898085 </v>
   <v>       0.00236800      -0.02208600      -0.00898085 </v>
   <v>       0.00236800      -0.02208600       0.00898085 </v>
   <v>       0.00236800      -0.02208600       0.00898085 </v>
   <v>      -0.00696876       0.03206542       0.01535020 </v>
   <v>       0.00236800       0.02208600       0.00898085 </v>
   <v>      -0.00696876      -0.03206542       0.01535020 </v>
   <v>       0.00236800       0.02208600      -0.00898085 </v>
   <v>      -0.00696876      -0.03206542       0.01535020 </v>
   <v>      -0.00696876       0.03206542      -0.01535020 </v>
   <v>      -0.00696876       0.03206542      -0.01535020 </v>
   <v>       0.00236800       0.02208600       0.00898085 </v>
   <v>       0.00236800       0.02208600      -0.00898085 </v>
   <v>      -0.00696876       0.03206542       0.01535020 </v>
   <v>      -0.00696876      -0.03206542      -0.01535020 </v>
   <v>      -0.00696876      -0.03206542      -0.01535020 </v>
   <v>       0.00836921       0.01263170      -0.00631464 </v>
   <v>      -0.00642979       0.00417565      -0.02176313 </v>
   <v>       0.00010065      -0.00163776      -0.01171956 </v>
   <v>       0.01759084       0.00141926      -0.02166561 </v>
   <v>       0.00836921       0.01263170      -0.00631464 </v>
   <v>      -0.00642979       0.00417565      -0.02176313 </v>
   <v>       0.00010065      -0.00163776      -0.01171956 </v>
   <v>       0.01759084       0.00141926      -0.02166561 </v>
   <v>       0.01759084       0.00141926       0.02166561 </v>
   <v>       0.00010065      -0.00163776       0.01171956 </v>
   <v>      -0.00642979       0.00417565       0.02176313 </v>
   <v>       0.00836921       0.01263170       0.00631464 </v>
   <v>       0.01759084       0.00141926       0.02166561 </v>
   <v>       0.00010065      -0.00163776       0.01171956 </v>
   <v>      -0.00642979       0.00417565       0.02176313 </v>
   <v>       0.00836921       0.01263170       0.00631464 </v>
   <v>       0.00836921      -0.01263170       0.00631464 </v>
   <v>      -0.00642979      -0.00417565       0.02176313 </v>
   <v>       0.00010065       0.00163776       0.01171956 </v>
   <v>       0.01759084      -0.00141926       0.02166561 </v>
   <v>       0.00836921      -0.01263170       0.00631464 </v>
   <v>      -0.00642979      -0.00417565       0.02176313 </v>
   <v>       0.00010065       0.00163776       0.01171956 </v>
   <v>       0.01759084      -0.00141926       0.02166561 </v>
   <v>       0.01759084      -0.00141926      -0.02166561 </v>
   <v>       0.00010065       0.00163776      -0.01171956 </v>
   <v>      -0.00642979      -0.00417565      -0.02176313 </v>
   <v>       0.00836921      -0.01263170      -0.00631464 </v>
   <v>       0.01759084      -0.00141926      -0.02166561 </v>
   <v>       0.00010065       0.00163776      -0.01171956 </v>
   <v>      -0.00642979      -0.00417565      -0.02176313 </v>
   <v>       0.00836921      -0.01263170      -0.00631464 </v>
   <v>       0.00686778      -0.00851604      -0.00130419 </v>
   <v>      -0.01647788      -0.01364039      -0.00400197 </v>
   <v>       0.00686778      -0.00851604      -0.00130419 </v>
   <v>      -0.01647788      -0.01364039      -0.00400197 </v>
   <v>      -0.01357460       0.00518724       0.00173363 </v>
   <v>      -0.01357460      -0.00518724      -0.00173363 </v>
   <v>      -0.01357460       0.00518724       0.00173363 </v>
   <v>      -0.01357460      -0.00518724      -0.00173363 </v>
   <v>      -0.01647788       0.01364039       0.00400197 </v>
   <v>       0.00686778       0.00851604       0.00130419 </v>
   <v>      -0.01647788       0.01364039       0.00400197 </v>
   <v>       0.00686778       0.00851604       0.00130419 </v>
   <v>       0.00325067      -0.00699417      -0.00416667 </v>
   <v>      -0.00328677      -0.00927455      -0.01150164 </v>
   <v>       0.00325067      -0.00699417      -0.00416667 </v>
   <v>      -0.00328677      -0.00927455      -0.01150164 </v>
   <v>       0.00504025      -0.00203813      -0.02713688 </v>
   <v>       0.00417424      -0.00297419       0.00426350 </v>
   <v>       0.00504025      -0.00203813      -0.02713688 </v>
   <v>       0.00417424      -0.00297419       0.00426350 </v>
   <v>       0.00325067      -0.00699417       0.00416667 </v>
   <v>      -0.00328677      -0.00927455       0.01150164 </v>
   <v>       0.00325067      -0.00699417       0.00416667 </v>
   <v>      -0.00328677      -0.00927455       0.01150164 </v>
   <v>       0.00504025      -0.00203813       0.02713688 </v>
   <v>       0.00417424      -0.00297419      -0.00426350 </v>
   <v>       0.00504025      -0.00203813       0.02713688 </v>
   <v>       0.00417424      -0.00297419      -0.00426350 </v>
   <v>      -0.01357460       0.00518724      -0.00173363 </v>
   <v>      -0.01357460      -0.00518724       0.00173363 </v>
   <v>      -0.01357460       0.00518724      -0.00173363 </v>
   <v>      -0.01357460      -0.00518724       0.00173363 </v>
   <v>      -0.01647788       0.01364039      -0.00400197 </v>
   <v>       0.00686778       0.00851604      -0.00130419 </v>
   <v>      -0.01647788       0.01364039      -0.00400197 </v>
   <v>       0.00686778       0.00851604      -0.00130419 </v>
   <v>       0.00686778      -0.00851604       0.00130419 </v>
   <v>      -0.01647788      -0.01364039       0.00400197 </v>
   <v>       0.00686778      -0.00851604       0.00130419 </v>
   <v>      -0.01647788      -0.01364039       0.00400197 </v>
   <v>      -0.00328677       0.00927455       0.01150164 </v>
   <v>       0.00325067       0.00699417       0.00416667 </v>
   <v>      -0.00328677       0.00927455       0.01150164 </v>
   <v>       0.00325067       0.00699417       0.00416667 </v>
   <v>       0.00417424       0.00297419       0.00426350 </v>
   <v>       0.00504025       0.00203813      -0.02713688 </v>
   <v>       0.00417424       0.00297419       0.00426350 </v>
   <v>       0.00504025       0.00203813      -0.02713688 </v>
   <v>      -0.00328677       0.00927455      -0.01150164 </v>
   <v>       0.00325067       0.00699417      -0.00416667 </v>
   <v>      -0.00328677       0.00927455      -0.01150164 </v>
   <v>       0.00325067       0.00699417      -0.00416667 </v>
   <v>       0.00417424       0.00297419      -0.00426350 </v>
   <v>       0.00504025       0.00203813       0.02713688 </v>
   <v>       0.00417424       0.00297419      -0.00426350 </v>
   <v>       0.00504025       0.00203813       0.02713688 </v>
  </varray>
  <varray name="stress" >
   <v>      -0.09261550       0.00000000       0.00000000 </v>
   <v>       0.00000000      -0.19640746       0.00000000 </v>
   <v>       0.00000000       0.00000000      -0.51999314 </v>
  </varray>
  <energy>
   <i name="e_fr_energy">  -1058.24831004 </i>
   <i name="e_wo_entrp">  -1058.24831004 </i>
   <i name="e_0_energy">     -0.00000000 </i>
  </energy>
  <time name="totalsc">  288.70  290.60</time>
 </calculation>
 <calculation>
  <scstep>
   <time name="dav">   71.96   71.99</time>
   <time name="total">   73.68   73.76</time>
   <energy>
    <i name="alphaZ">   5603.96230391 </i>
    <i name="ewald"> -61853.29215644 </i>
    <i name="hartreedc"> -17716.10738400 </i>
    <i name="XCdc">   3186.82872683 </i>
    <i name="pawpsdc"> 115940.83077234 </i>
    <i name="pawaedc">-115144.30332128 </i>
    <i name="eentropy">     -0.00000000 </i>
    <i name="bandstr">  -7126.34235966 </i>
    <i name="atom">  76050.17612637 </i>
    <i name="e_fr_energy">  -1058.24729193 </i>
    <i name="e_wo_entrp">  -1058.24729193 </i>
    <i name="e_0_energy">  -1058.24729193 </i>
   </energy>
  </scstep>
  <scstep>
   <time name="diag">    8.32    8.32</time>
   <time name="diis">   12.97   12.97</time>
   <time name="orth">    4.72    4.72</time>
   <time name="total">   27.77   27.82</time>
   <energy>
    <i name="e_fr_energy">  -1058.24976052 </i>
    <i name="e_wo_entrp">  -1058.24976052 </i>
    <i name="e_0_energy">  -1058.24976052 </i>
   </energy>
  </scstep>
  <scstep>
   <time name="diag">    8.31    8.31</time>
   <time name="diis">   12.84   12.83</time>
   <time name="orth">    4.71    4.71</time>
   <time name="total">   27.63   27.72</time>
   <energy>
    <i name="e_fr_energy">  -1058.24999868 </i>
    <i name="e_wo_entrp">  -1058.24999868 </i>
    <i name="e_0_energy">  -1058.24999868 </i>
   </energy>
  </scstep>
  <scstep>
   <time name="diag">    8.31    8.31</time>
   <time name="diis">   11.09   11.09</time>
   <time name="orth">    4.72    4.72</time>
   <time name="total">   25.89   26.04</time>
   <energy>
    <i name="e_fr_energy">  -1058.24988004 </i>
    <i name="e_wo_entrp">  -1058.24988004 </i>
    <i name="e_0_energy">  -1058.24988004 </i>
   </energy>
  </scstep>
  <scstep>
   <time name="diag">    8.30    8.30</time>
   <time name="diis">    8.28    8.28</time>
   <time name="orth">    4.71    4.71</time>
   <time name="total">   23.07   23.14</time>
   <energy>
    <i name="e_fr_energy">  -1058.24985956 </i>
    <i name="e_wo_entrp">  -1058.24985956 </i>
    <i name="e_0_energy">  -1058.24985956 </i>
   </energy>
  </scstep>
  <scstep>
   <time name="diag">    8.30    8.30</time>
   <time name="diis">    7.97    7.97</time>
   <time name="orth">    4.69    4.69</time>
   <time name="total">   22.74   22.83</time>
   <energy>
    <i name="e_fr_energy">  -1058.24986554 </i>
    <i name="e_wo_entrp">  -1058.24986554 </i>
    <i name="e_0_energy">  -1058.24986554 </i>
   </energy>
  </scstep>
  <scstep>
   <time name="diag">    8.32    8.33</time>
   <time name="diis">    7.86    7.87</time>
   <time name="orth">    4.72    4.72</time>
   <time name="total">   22.67   22.75</time>
   <energy>
    <i name="e_fr_energy">  -1058.24986978 </i>
    <i name="e_wo_entrp">  -1058.24986978 </i>
    <i name="e_0_energy">  -1058.24986978 </i>
   </energy>
  </scstep>
  <scstep>
   <time name="diag">    8.32    8.33</time>
   <time name="diis">    7.81    7.81</time>
   <time name="orth">    4.72    4.72</time>
   <time name="total">   21.42   21.77</time>
   <energy>
    <i name="alphaZ">   5603.96230391 </i>
    <i name="ewald"> -61853.29215644 </i>
    <i name="hartreedc"> -17711.38396161 </i>
    <i name="XCdc">   3186.51606376 </i>
    <i name="pawpsdc"> 116022.36247906 </i>
    <i name="pawaedc">-115225.88908450 </i>
    <i name="eentropy">     -0.00000000 </i>
    <i name="bandstr">  -7130.70164397 </i>
    <i name="atom">  76050.17612637 </i>
    <i name="e_fr_energy">  -1058.24987341 </i>
    <i name="e_wo_entrp">  -1058.24987341 </i>
    <i name="e_0_energy">  -1058.24987341 </i>
   </energy>
  </scstep>
  <structure>
   <crystal>
    <varray name="basis" >
     <v>      11.24288479       0.00000000       0.00000000 </v>
     <v>       0.00000000      11.31810840       0.00000000 </v>
     <v>       0.00000000       0.00000000      15.79348117 </v>
    </varray>
    <i name="volume">   2009.69187188 </i>
    <varray name="rec_basis" >
     <v>       0.08894514       0.00000000       0.00000000 </v>
     <v>       0.00000000       0.08835399       0.00000000 </v>
     <v>       0.00000000       0.00000000       0.06331726 </v>
    </varray>
   </crystal>
   <varray name="positions" >
    <v>       0.99881208       0.25509515       0.11354009 </v>
    <v>       0.99740831       0.24011948       0.61879717 </v>
    <v>       0.99792646       0.73842432       0.11874207 </v>
    <v>       0.00042777       0.75257435       0.61375804 </v>
    <v>       0.49881208       0.25509515       0.11354009 </v>
    <v>       0.49740831       0.24011948       0.61879717 </v>
    <v>       0.49792646       0.73842432       0.11874207 </v>
    <v>       0.50042777       0.75257435       0.61375804 </v>
    <v>       0.00042777       0.25257435       0.38624196 </v>
    <v>       0.99792646       0.23842432       0.88125793 </v>
    <v>       0.99740831       0.74011948       0.38120283 </v>
    <v>       0.99881208       0.75509515       0.88645991 </v>
    <v>       0.50042777       0.25257435       0.38624196 </v>
    <v>       0.49792646       0.23842432       0.88125793 </v>
    <v>       0.49740831       0.74011948       0.38120283 </v>
    <v>       0.49881208       0.75509515       0.88645991 </v>
    <v>       0.25042777       0.99742565       0.11375804 </v>
    <v>       0.24792646       0.01157568       0.61874207 </v>
    <v>       0.24740831       0.50988052       0.11879717 </v>
    <v>       0.24881208       0.49490485       0.61354009 </v>
    <v>       0.75042777       0.99742565       0.11375804 </v>
    <v>       0.74792646       0.01157568       0.61874207 </v>
    <v>       0.74740831       0.50988052       0.11879717 </v>
    <v>       0.74881208       0.49490485       0.61354009 </v>
    <v>       0.24881208       0.99490485       0.38645991 </v>
    <v>       0.24740831       0.00988052       0.88120283 </v>
    <v>       0.24792646       0.51157568       0.38125793 </v>
    <v>       0.25042777       0.49742565       0.88624196 </v>
    <v>       0.74881208       0.99490485       0.38645991 </v>
    <v>       0.74740831       0.00988052       0.88120283 </v>
    <v>       0.74792646       0.51157568       0.38125793 </v>
    <v>       0.75042777       0.49742565       0.88624196 </v>
    <v>       0.25182369       0.24775700       0.74875751 </v>
    <v>       0.24766492       0.24921272       0.00107742 </v>
    <v>       0.74766492       0.74921272       0.99892258 </v>
    <v>       0.75182369       0.24775700       0.74875751 </v>
    <v>       0.00182369       0.00224300       0.75124249 </v>
    <v>       0.24766492       0.74921272       0.99892258 </v>
    <v>       0.75182369       0.74775700       0.25124249 </v>
    <v>       0.00182369       0.50224300       0.24875751 </v>
    <v>       0.50182369       0.00224300       0.75124249 </v>
    <v>       0.74766492       0.24921272       0.00107742 </v>
    <v>       0.25182369       0.74775700       0.25124249 </v>
    <v>       0.50182369       0.50224300       0.24875751 </v>
    <v>       0.49766492       0.50078728       0.50107742 </v>
    <v>       0.99766492       0.50078728       0.50107742 </v>
    <v>       0.49766492       0.00078728       0.49892258 </v>
    <v>       0.99766492       0.00078728       0.49892258 </v>
    <v>       0.24771138       0.74831756       0.50130851 </v>
    <v>       0.74771138       0.74831756       0.50130851 </v>
    <v>       0.24771138       0.24831756       0.49869149 </v>
    <v>       0.74771138       0.24831756       0.49869149 </v>
    <v>       0.75844712       0.78315735       0.75050217 </v>
    <v>       0.49771138       0.50168244       0.99869149 </v>
    <v>       0.00844712       0.96684265       0.25050217 </v>
    <v>       0.99771138       0.00168244       0.00130851 </v>
    <v>       0.50844712       0.96684265       0.25050217 </v>
    <v>       0.75844712       0.28315735       0.24949783 </v>
    <v>       0.25844712       0.28315735       0.24949783 </v>
    <v>       0.99771138       0.50168244       0.99869149 </v>
    <v>       0.49771138       0.00168244       0.00130851 </v>
    <v>       0.25844712       0.78315735       0.75050217 </v>
    <v>       0.00844712       0.46684265       0.74949783 </v>
    <v>       0.50844712       0.46684265       0.74949783 </v>
    <v>       0.98815369       0.03103733       0.14204156 </v>
    <v>       0.00004115       0.00321628       0.62430659 </v>
    <v>       0.00026486       0.50212119       0.12564796 </v>
    <v>       0.99153195       0.51860315       0.63516276 </v>
    <v>       0.48815369       0.03103733       0.14204156 </v>
    <v>       0.50004115       0.00321628       0.62430659 </v>
    <v>       0.50026486       0.50212119       0.12564796 </v>
    <v>       0.49153195       0.51860315       0.63516276 </v>
    <v>       0.99153195       0.01860315       0.36483724 </v>
    <v>       0.00026486       0.00212119       0.87435204 </v>
    <v>       0.00004115       0.50321628       0.37569341 </v>
    <v>       0.98815369       0.53103733       0.85795844 </v>
    <v>       0.49153195       0.01860315       0.36483724 </v>
    <v>       0.50026486       0.00212119       0.87435204 </v>
    <v>       0.50004115       0.50321628       0.37569341 </v>
    <v>       0.48815369       0.53103733       0.85795844 </v>
    <v>       0.23815369       0.21896267       0.35795844 </v>
    <v>       0.25004115       0.24678372       0.87569341 </v>
    <v>       0.25026486       0.74787881       0.37435204 </v>
    <v>       0.24153195       0.73139685       0.86483724 </v>
    <v>       0.73815369       0.21896267       0.35795844 </v>
    <v>       0.75004115       0.24678372       0.87569341 </v>
    <v>       0.75026486       0.74787881       0.37435204 </v>
    <v>       0.74153195       0.73139685       0.86483724 </v>
    <v>       0.24153195       0.23139685       0.13516276 </v>
    <v>       0.25026486       0.24787881       0.62564796 </v>
    <v>       0.25004115       0.74678372       0.12430659 </v>
    <v>       0.23815369       0.71896267       0.64204156 </v>
    <v>       0.74153195       0.23139685       0.13516276 </v>
    <v>       0.75026486       0.24787881       0.62564796 </v>
    <v>       0.75004115       0.74678372       0.12430659 </v>
    <v>       0.73815369       0.71896267       0.64204156 </v>
    <v>       0.15338590       0.41045908       0.25097032 </v>
    <v>       0.41533022       0.34320697       0.25104167 </v>
    <v>       0.65338590       0.41045908       0.25097032 </v>
    <v>       0.91533022       0.34320697       0.25104167 </v>
    <v>       0.10416902       0.64999192       0.24995228 </v>
    <v>       0.35416902       0.60000808       0.25004772 </v>
    <v>       0.60416902       0.64999192       0.24995228 </v>
    <v>       0.85416902       0.60000808       0.25004772 </v>
    <v>       0.16533022       0.90679303       0.24895833 </v>
    <v>       0.40338590       0.83954092       0.24902968 </v>
    <v>       0.66533022       0.90679303       0.24895833 </v>
    <v>       0.90338590       0.83954092       0.24902968 </v>
    <v>       0.12635078       0.11881750       0.49938267 </v>
    <v>       0.37788389       0.12917954       0.49900676 </v>
    <v>       0.62635078       0.11881750       0.49938267 </v>
    <v>       0.87788389       0.12917954       0.49900676 </v>
    <v>       0.11623770       0.37051591       0.50293558 </v>
    <v>       0.36742912       0.37985459       0.49542598 </v>
    <v>       0.61623770       0.37051591       0.50293558 </v>
    <v>       0.86742912       0.37985459       0.49542598 </v>
    <v>       0.12635078       0.61881750       0.50061733 </v>
    <v>       0.37788389       0.62917954       0.50099324 </v>
    <v>       0.62635078       0.61881750       0.50061733 </v>
    <v>       0.87788389       0.62917954       0.50099324 </v>
    <v>       0.11623770       0.87051591       0.49706442 </v>
    <v>       0.36742912       0.87985459       0.50457402 </v>
    <v>       0.61623770       0.87051591       0.49706442 </v>
    <v>       0.86742912       0.87985459       0.50457402 </v>
    <v>       0.10416902       0.14999192       0.75004772 </v>
    <v>       0.35416902       0.10000808       0.74995228 </v>
    <v>       0.60416902       0.14999192       0.75004772 </v>
    <v>       0.85416902       0.10000808       0.74995228 </v>
    <v>       0.16533022       0.40679303       0.75104167 </v>
    <v>       0.40338590       0.33954092       0.75097032 </v>
    <v>       0.66533022       0.40679303       0.75104167 </v>
    <v>       0.90338590       0.33954092       0.75097032 </v>
    <v>       0.15338590       0.91045908       0.74902968 </v>
    <v>       0.41533022       0.84320697       0.74895833 </v>
    <v>       0.65338590       0.91045908       0.74902968 </v>
    <v>       0.91533022       0.84320697       0.74895833 </v>
    <v>       0.12788389       0.12082046       0.00099324 </v>
    <v>       0.37635078       0.13118250       0.00061733 </v>
    <v>       0.62788389       0.12082046       0.00099324 </v>
    <v>       0.87635078       0.13118250       0.00061733 </v>
    <v>       0.11742912       0.37014541       0.99542598 </v>
    <v>       0.36623770       0.37948409       0.00293558 </v>
    <v>       0.61742912       0.37014541       0.99542598 </v>
    <v>       0.86623770       0.37948409       0.00293558 </v>
    <v>       0.12788389       0.62082046       0.99900676 </v>
    <v>       0.37635078       0.63118250       0.99938267 </v>
    <v>       0.62788389       0.62082046       0.99900676 </v>
    <v>       0.87635078       0.63118250       0.99938267 </v>
    <v>       0.11742912       0.87014541       0.00457402 </v>
    <v>       0.36623770       0.87948409       0.99706442 </v>
    <v>       0.61742912       0.87014541       0.00457402 </v>
    <v>       0.86623770       0.87948409       0.99706442 </v>
   </varray>
  </structure>
  <varray name="forces" >
   <v>      -0.00465399       0.00527599      -0.01593364 </v>
   <v>      -0.00152300       0.00780230      -0.01084677 </v>
   <v>      -0.00183651       0.01127987      -0.00842569 </v>
   <v>      -0.00573806      -0.00566785      -0.00555049 </v>
   <v>      -0.00465399       0.00527599      -0.01593364 </v>
   <v>      -0.00152300       0.00780230      -0.01084677 </v>
   <v>      -0.00183651       0.01127987      -0.00842569 </v>
   <v>      -0.00573806      -0.00566785      -0.00555049 </v>
   <v>      -0.00573806      -0.00566785       0.00555049 </v>
   <v>      -0.00183651       0.01127987       0.00842569 </v>
   <v>      -0.00152300       0.00780230       0.01084677 </v>
   <v>      -0.00465399       0.00527599       0.01593364 </v>
   <v>      -0.00573806      -0.00566785       0.00555049 </v>
   <v>      -0.00183651       0.01127987       0.00842569 </v>
   <v>      -0.00152300       0.00780230       0.01084677 </v>
   <v>      -0.00465399       0.00527599       0.01593364 </v>
   <v>      -0.00573806       0.00566785      -0.00555049 </v>
   <v>      -0.00183651      -0.01127987      -0.00842569 </v>
   <v>      -0.00152300      -0.00780230      -0.01084677 </v>
   <v>      -0.00465399      -0.00527599      -0.01593364 </v>
   <v>      -0.00573806       0.00566785      -0.00555049 </v>
   <v>      -0.00183651      -0.01127987      -0.00842569 </v>
   <v>      -0.00152300      -0.00780230      -0.01084677 </v>
   <v>      -0.00465399      -0.00527599      -0.01593364 </v>
   <v>      -0.00465399      -0.00527599       0.01593364 </v>
   <v>      -0.00152300      -0.00780230       0.01084677 </v>
   <v>      -0.00183651      -0.01127987       0.00842569 </v>
   <v>      -0.00573806       0.00566785       0.00555049 </v>
   <v>      -0.00465399      -0.00527599       0.01593364 </v>
   <v>      -0.00152300      -0.00780230       0.01084677 </v>
   <v>      -0.00183651      -0.01127987       0.00842569 </v>
   <v>      -0.00573806       0.00566785       0.00555049 </v>
   <v>      -0.00455687      -0.00338294       0.02447030 </v>
   <v>      -0.00219919       0.01407734       0.00337353 </v>
   <v>      -0.00219919       0.01407734      -0.00337353 </v>
   <v>      -0.00455687      -0.00338294       0.02447030 </v>
   <v>      -0.00455687       0.00338294      -0.02447030 </v>
   <v>      -0.00219919       0.01407734      -0.00337353 </v>
   <v>      -0.00455687      -0.00338294      -0.02447030 </v>
   <v>      -0.00455687       0.00338294       0.02447030 </v>
   <v>      -0.00455687       0.00338294      -0.02447030 </v>
   <v>      -0.00219919       0.01407734       0.00337353 </v>
   <v>      -0.00455687      -0.00338294      -0.02447030 </v>
   <v>      -0.00455687       0.00338294       0.02447030 </v>
   <v>      -0.00219919      -0.01407734       0.00337353 </v>
   <v>      -0.00219919      -0.01407734       0.00337353 </v>
   <v>      -0.00219919      -0.01407734      -0.00337353 </v>
   <v>      -0.00219919      -0.01407734      -0.00337353 </v>
   <v>       0.00383675       0.00139342       0.01302526 </v>
   <v>       0.00383675       0.00139342       0.01302526 </v>
   <v>       0.00383675       0.00139342      -0.01302526 </v>
   <v>       0.00383675       0.00139342      -0.01302526 </v>
   <v>       0.00064491      -0.01215697      -0.00326221 </v>
   <v>       0.00383675      -0.00139342      -0.01302526 </v>
   <v>       0.00064491       0.01215697      -0.00326221 </v>
   <v>       0.00383675      -0.00139342       0.01302526 </v>
   <v>       0.00064491       0.01215697      -0.00326221 </v>
   <v>       0.00064491      -0.01215697       0.00326221 </v>
   <v>       0.00064491      -0.01215697       0.00326221 </v>
   <v>       0.00383675      -0.00139342      -0.01302526 </v>
   <v>       0.00383675      -0.00139342       0.01302526 </v>
   <v>       0.00064491      -0.01215697      -0.00326221 </v>
   <v>       0.00064491       0.01215697       0.00326221 </v>
   <v>       0.00064491       0.01215697       0.00326221 </v>
   <v>       0.00534628       0.00405674       0.00742395 </v>
   <v>      -0.00449639       0.00739094       0.00980625 </v>
   <v>       0.00009527      -0.00239234       0.00176403 </v>
   <v>       0.01531225      -0.00320937      -0.01003390 </v>
   <v>       0.00534628       0.00405674       0.00742395 </v>
   <v>      -0.00449639       0.00739094       0.00980625 </v>
   <v>       0.00009527      -0.00239234       0.00176403 </v>
   <v>       0.01531225      -0.00320937      -0.01003390 </v>
   <v>       0.01531225      -0.00320937       0.01003390 </v>
   <v>       0.00009527      -0.00239234      -0.00176403 </v>
   <v>      -0.00449639       0.00739094      -0.00980625 </v>
   <v>       0.00534628       0.00405674      -0.00742395 </v>
   <v>       0.01531225      -0.00320937       0.01003390 </v>
   <v>       0.00009527      -0.00239234      -0.00176403 </v>
   <v>      -0.00449639       0.00739094      -0.00980625 </v>
   <v>       0.00534628       0.00405674      -0.00742395 </v>
   <v>       0.00534628      -0.00405674      -0.00742395 </v>
   <v>      -0.00449639      -0.00739094      -0.00980625 </v>
   <v>       0.00009527       0.00239234      -0.00176403 </v>
   <v>       0.01531225       0.00320937       0.01003390 </v>
   <v>       0.00534628      -0.00405674      -0.00742395 </v>
   <v>      -0.00449639      -0.00739094      -0.00980625 </v>
   <v>       0.00009527       0.00239234      -0.00176403 </v>
   <v>       0.01531225       0.00320937       0.01003390 </v>
   <v>       0.01531225       0.00320937      -0.01003390 </v>
   <v>       0.00009527       0.00239234       0.00176403 </v>
   <v>      -0.00449639      -0.00739094       0.00980625 </v>
   <v>       0.00534628      -0.00405674       0.00742395 </v>
   <v>       0.01531225       0.00320937      -0.01003390 </v>
[...]
       <r>   -16.8741     0.0000    32.0000 </r>
       <r>   -16.7215     0.0000    32.0000 </r>
       <r>   -16.5690     0.0000    32.0000 </r>
       <r>   -16.4165     0.0000    32.0000 </r>
       <r>   -16.2639     0.0000    32.0000 </r>
       <r>   -16.1114     0.0000    32.0000 </r>
       <r>   -15.9589     0.0000    32.0000 </r>
       <r>   -15.8063     0.0000    32.0000 </r>
       <r>   -15.6538     0.0000    32.0000 </r>
       <r>   -15.5013     0.0000    32.0000 </r>
       <r>   -15.3487     0.0000    32.0000 </r>
       <r>   -15.1962     0.0666    32.0102 </r>
       <r>   -15.0437    13.5269    34.0734 </r>
       <r>   -14.8911    58.4507    42.9890 </r>
       <r>   -14.7386    40.9939    49.2419 </r>
       <r>   -14.5861    30.4876    53.8922 </r>
       <r>   -14.4336    41.4221    60.2104 </r>
       <r>   -14.2810    43.6726    66.8719 </r>
       <r>   -14.1285    81.5341    79.3084 </r>
       <r>   -13.9760   100.0086    94.5629 </r>
       <r>   -13.8234    94.5117   108.9789 </r>
       <r>   -13.6709    64.4441   118.8087 </r>
       <r>   -13.5184     7.8105   120.0000 </r>
       <r>   -13.3658     0.0000   120.0000 </r>
       <r>   -13.2133     0.0000   120.0000 </r>
       <r>   -13.0608     0.0000   120.0000 </r>
       <r>   -12.9082     0.0000   120.0000 </r>
       <r>   -12.7557     0.0262   120.0040 </r>
       <r>   -12.6032    23.2783   123.5547 </r>
       <r>   -12.4506   131.1620   143.5610 </r>
       <r>   -12.2981   150.4593   166.5108 </r>
       <r>   -12.1456   132.5315   186.7261 </r>
       <r>   -11.9930   110.9656   203.6518 </r>
       <r>   -11.8405    74.2331   214.9747 </r>
       <r>   -11.6880     6.7216   216.0000 </r>
       <r>   -11.5355     0.0000   216.0000 </r>
       <r>   -11.3829     0.0000   216.0000 </r>
       <r>   -11.2304     0.0000   216.0000 </r>
       <r>   -11.0779     0.0000   216.0000 </r>
       <r>   -10.9253     0.0000   216.0000 </r>
       <r>   -10.7728     0.0000   216.0000 </r>
       <r>   -10.6203     0.0000   216.0000 </r>
       <r>   -10.4677     0.0000   216.0000 </r>
       <r>   -10.3152     0.0000   216.0000 </r>
       <r>   -10.1627     0.0000   216.0000 </r>
       <r>   -10.0101     0.0000   216.0000 </r>
       <r>    -9.8576     0.0000   216.0000 </r>
       <r>    -9.7051     0.0000   216.0000 </r>
       <r>    -9.5525     0.0000   216.0000 </r>
       <r>    -9.4000     0.0000   216.0000 </r>
       <r>    -9.2475     0.0000   216.0000 </r>
       <r>    -9.0949     0.0000   216.0000 </r>
       <r>    -8.9424     0.0000   216.0000 </r>
       <r>    -8.7899     0.0000   216.0000 </r>
       <r>    -8.6374     0.0000   216.0000 </r>
       <r>    -8.4848     0.0000   216.0000 </r>
       <r>    -8.3323     0.0000   216.0000 </r>
       <r>    -8.1798     0.0000   216.0000 </r>
       <r>    -8.0272     0.0000   216.0000 </r>
       <r>    -7.8747     0.0000   216.0000 </r>
       <r>    -7.7222     0.0000   216.0000 </r>
       <r>    -7.5696     0.0000   216.0000 </r>
       <r>    -7.4171     0.0000   216.0000 </r>
       <r>    -7.2646     0.0000   216.0000 </r>
       <r>    -7.1120     0.0000   216.0000 </r>
       <r>    -6.9595     0.0000   216.0000 </r>
       <r>    -6.8070     0.0000   216.0000 </r>
       <r>    -6.6544     0.0000   216.0000 </r>
       <r>    -6.5019     0.0000   216.0000 </r>
       <r>    -6.3494     0.0000   216.0000 </r>
       <r>    -6.1968     0.0000   216.0000 </r>
       <r>    -6.0443     0.0000   216.0000 </r>
       <r>    -5.8918     0.0000   216.0000 </r>
       <r>    -5.7392     0.0000   216.0000 </r>
       <r>    -5.5867     0.0000   216.0000 </r>
       <r>    -5.4342     0.0000   216.0000 </r>
       <r>    -5.2817     0.0000   216.0000 </r>
       <r>    -5.1291     0.0000   216.0000 </r>
       <r>    -4.9766     0.0000   216.0000 </r>
       <r>    -4.8241     0.0000   216.0000 </r>
       <r>    -4.6715     0.0000   216.0000 </r>
       <r>    -4.5190     0.0000   216.0000 </r>
       <r>    -4.3665     0.0000   216.0000 </r>
       <r>    -4.2139     0.0000   216.0000 </r>
       <r>    -4.0614     0.0000   216.0000 </r>
       <r>    -3.9089     0.0000   216.0000 </r>
       <r>    -3.7563     0.0000   216.0000 </r>
       <r>    -3.6038     0.0000   216.0000 </r>
       <r>    -3.4513     0.0000   216.0000 </r>
       <r>    -3.2987     0.0000   216.0000 </r>
       <r>    -3.1462     0.0000   216.0000 </r>
       <r>    -2.9937     0.0000   216.0000 </r>
       <r>    -2.8411     0.0000   216.0000 </r>
       <r>    -2.6886     0.0000   216.0000 </r>
       <r>    -2.5361     0.7331   216.1118 </r>
       <r>    -2.3836    11.0420   217.7961 </r>
       <r>    -2.2310    13.4511   219.8478 </r>
       <r>    -2.0785    22.4493   223.2720 </r>
       <r>    -1.9260    16.2429   225.7496 </r>
       <r>    -1.7734    40.1061   231.8670 </r>
       <r>    -1.6209    35.7914   237.3263 </r>
       <r>    -1.4684    43.4701   243.9569 </r>
       <r>    -1.3158    68.2070   254.3606 </r>
       <r>    -1.1633    58.8733   263.3407 </r>
       <r>    -1.0108    71.8231   274.2960 </r>
       <r>    -0.8582    75.9964   285.8878 </r>
       <r>    -0.7057    77.4189   297.6967 </r>
       <r>    -0.5532   103.5897   313.4974 </r>
       <r>    -0.4006    96.5050   328.2175 </r>
       <r>    -0.2481    70.3742   338.9517 </r>
       <r>    -0.0956    50.7577   346.6939 </r>
       <r>     0.0570    44.3639   353.4608 </r>
       <r>     0.2095    58.2416   362.3445 </r>
       <r>     0.3620    70.9714   373.1699 </r>
       <r>     0.5145    56.4019   381.7729 </r>
       <r>     0.6671    59.8000   390.8943 </r>
       <r>     0.8196    49.9910   398.5195 </r>
       <r>     0.9721    54.8838   406.8910 </r>
       <r>     1.1247    49.2214   414.3989 </r>
       <r>     1.2772    85.0757   427.3756 </r>
       <r>     1.4297    93.3238   441.6104 </r>
       <r>     1.5823    72.0403   452.5988 </r>
       <r>     1.7348    91.4605   466.5495 </r>
       <r>     1.8873    35.2422   471.9250 </r>
       <r>     2.0399    30.3974   476.5616 </r>
       <r>     2.1924    22.4846   479.9912 </r>
       <r>     2.3449     0.0578   480.0000 </r>
       <r>     2.4975     0.0000   480.0000 </r>
       <r>     2.6500     0.0000   480.0000 </r>
       <r>     2.8025     0.0000   480.0000 </r>
       <r>     2.9551     0.0000   480.0000 </r>
       <r>     3.1076     0.0000   480.0000 </r>
       <r>     3.2601     0.0000   480.0000 </r>
       <r>     3.4126     0.0000   480.0000 </r>
       <r>     3.5652     0.0000   480.0000 </r>
       <r>     3.7177     0.0000   480.0000 </r>
       <r>     3.8702     0.0000   480.0000 </r>
       <r>     4.0228     0.0000   480.0000 </r>
       <r>     4.1753     0.0000   480.0000 </r>
       <r>     4.3278     0.0046   480.0007 </r>
       <r>     4.4804    12.0472   481.8383 </r>
       <r>     4.6329    60.1227   491.0089 </r>
       <r>     4.7854    60.1566   500.1847 </r>
       <r>     4.9380    65.7737   510.2173 </r>
       <r>     5.0905    85.2851   523.2259 </r>
       <r>     5.2430    57.5656   532.0065 </r>
       <r>     5.3956    78.5249   543.9840 </r>
       <r>     5.5481    75.0336   555.4290 </r>
       <r>     5.7006    67.4665   565.7198 </r>
       <r>     5.8532    92.1430   579.7746 </r>
       <r>     6.0057    83.5049   592.5117 </r>
       <r>     6.1582    62.7431   602.0820 </r>
       <r>     6.3108    38.7599   607.9941 </r>
       <r>     6.4633     0.0386   608.0000 </r>
       <r>     6.6158     0.1197   608.0183 </r>
       <r>     6.7683    11.5223   609.7758 </r>
       <r>     6.9209    31.1679   614.5299 </r>
       <r>     7.0734    19.4543   617.4973 </r>
       <r>     7.2259    17.0253   620.0942 </r>
       <r>     7.3785    17.1206   622.7056 </r>
       <r>     7.5310     8.6058   624.0183 </r>
       <r>     7.6835    13.9525   626.1464 </r>
       <r>     7.8361    26.4008   630.1734 </r>
       <r>     7.9886    31.5613   634.9875 </r>
       <r>     8.1411    17.2841   637.6239 </r>
       <r>     8.2937    20.0551   640.6829 </r>
       <r>     8.4462    27.8050   644.9241 </r>
       <r>     8.5987    28.6271   649.2906 </r>
       <r>     8.7513    30.5647   653.9527 </r>
       <r>     8.9038    28.1349   658.2441 </r>
       <r>     9.0563    28.5976   662.6062 </r>
       <r>     9.2089    33.5937   667.7303 </r>
       <r>     9.3614    41.6511   674.0834 </r>
       <r>     9.5139    47.5372   681.3343 </r>
       <r>     9.6664    45.6211   688.2930 </r>
       <r>     9.8190    52.5472   696.3081 </r>
       <r>     9.9715    50.5596   704.0200 </r>
       <r>    10.1240    52.3327   712.0024 </r>
       <r>    10.2766    61.9372   721.4498 </r>
       <r>    10.4291    51.1197   729.2472 </r>
       <r>    10.5816    51.3979   737.0870 </r>
       <r>    10.7342    55.4869   745.5505 </r>
       <r>    10.8867    51.0473   753.3368 </r>
       <r>    11.0392    64.9257   763.2400 </r>
       <r>    11.1918    31.1821   767.9963 </r>
       <r>    11.3443     0.0244   768.0000 </r>
       <r>    11.4968     0.0000   768.0000 </r>
       <r>    11.6494     0.0000   768.0000 </r>
       <r>    11.8019     0.0000   768.0000 </r>
       <r>    11.9544     0.0000   768.0000 </r>
       <r>    12.1070     0.0000   768.0000 </r>
       <r>    12.2595     0.0000   768.0000 </r>
       <r>    12.4120     0.0000   768.0000 </r>
       <r>    12.5645     0.0000   768.0000 </r>
       <r>    12.7171     0.0000   768.0000 </r>
       <r>    12.8696     0.0000   768.0000 </r>
       <r>    13.0221     0.0000   768.0000 </r>
       <r>    13.1747     0.0000   768.0000 </r>
      </set>
     </set>
    </array>
   </total>
  </dos>
 </calculation>
 <structure name="finalpos" >
  <crystal>
   <varray name="basis" >
    <v>      11.24288479       0.00000000       0.00000000 </v>
    <v>       0.00000000      11.31810840       0.00000000 </v>
    <v>       0.00000000       0.00000000      15.79348117 </v>
   </varray>
   <i name="volume">   2009.69187188 </i>
   <varray name="rec_basis" >
    <v>       0.08894514       0.00000000       0.00000000 </v>
    <v>       0.00000000       0.08835399       0.00000000 </v>
    <v>       0.00000000       0.00000000       0.06331726 </v>
   </varray>
  </crystal>
  <varray name="positions" >
   <v>       0.99881208       0.25509515       0.11354009 </v>
   <v>       0.99740831       0.24011948       0.61879717 </v>
   <v>       0.99792646       0.73842432       0.11874207 </v>
   <v>       0.00042777       0.75257435       0.61375804 </v>
   <v>       0.49881208       0.25509515       0.11354009 </v>
   <v>       0.49740831       0.24011948       0.61879717 </v>
   <v>       0.49792646       0.73842432       0.11874207 </v>
   <v>       0.50042777       0.75257435       0.61375804 </v>
   <v>       0.00042777       0.25257435       0.38624196 </v>
   <v>       0.99792646       0.23842432       0.88125793 </v>
   <v>       0.99740831       0.74011948       0.38120283 </v>
   <v>       0.99881208       0.75509515       0.88645991 </v>
   <v>       0.50042777       0.25257435       0.38624196 </v>
   <v>       0.49792646       0.23842432       0.88125793 </v>
   <v>       0.49740831       0.74011948       0.38120283 </v>
   <v>       0.49881208       0.75509515       0.88645991 </v>
   <v>       0.25042777       0.99742565       0.11375804 </v>
   <v>       0.24792646       0.01157568       0.61874207 </v>
   <v>       0.24740831       0.50988052       0.11879717 </v>
   <v>       0.24881208       0.49490485       0.61354009 </v>
   <v>       0.75042777       0.99742565       0.11375804 </v>
   <v>       0.74792646       0.01157568       0.61874207 </v>
   <v>       0.74740831       0.50988052       0.11879717 </v>
   <v>       0.74881208       0.49490485       0.61354009 </v>
   <v>       0.24881208       0.99490485       0.38645991 </v>
   <v>       0.24740831       0.00988052       0.88120283 </v>
   <v>       0.24792646       0.51157568       0.38125793 </v>
   <v>       0.25042777       0.49742565       0.88624196 </v>
   <v>       0.74881208       0.99490485       0.38645991 </v>
   <v>       0.74740831       0.00988052       0.88120283 </v>
   <v>       0.74792646       0.51157568       0.38125793 </v>
   <v>       0.75042777       0.49742565       0.88624196 </v>
   <v>       0.25182369       0.24775700       0.74875751 </v>
   <v>       0.24766492       0.24921272       0.00107742 </v>
   <v>       0.74766492       0.74921272       0.99892258 </v>
   <v>       0.75182369       0.24775700       0.74875751 </v>
   <v>       0.00182369       0.00224300       0.75124249 </v>
   <v>       0.24766492       0.74921272       0.99892258 </v>
   <v>       0.75182369       0.74775700       0.25124249 </v>
   <v>       0.00182369       0.50224300       0.24875751 </v>
   <v>       0.50182369       0.00224300       0.75124249 </v>
   <v>       0.74766492       0.24921272       0.00107742 </v>
   <v>       0.25182369       0.74775700       0.25124249 </v>
   <v>       0.50182369       0.50224300       0.24875751 </v>
   <v>       0.49766492       0.50078728       0.50107742 </v>
   <v>       0.99766492       0.50078728       0.50107742 </v>
   <v>       0.49766492       0.00078728       0.49892258 </v>
   <v>       0.99766492       0.00078728       0.49892258 </v>
   <v>       0.24771138       0.74831756       0.50130851 </v>
   <v>       0.74771138       0.74831756       0.50130851 </v>
   <v>       0.24771138       0.24831756       0.49869149 </v>
   <v>       0.74771138       0.24831756       0.49869149 </v>
   <v>       0.75844712       0.78315735       0.75050217 </v>
   <v>       0.49771138       0.50168244       0.99869149 </v>
   <v>       0.00844712       0.96684265       0.25050217 </v>
   <v>       0.99771138       0.00168244       0.00130851 </v>
   <v>       0.50844712       0.96684265       0.25050217 </v>
   <v>       0.75844712       0.28315735       0.24949783 </v>
   <v>       0.25844712       0.28315735       0.24949783 </v>
   <v>       0.99771138       0.50168244       0.99869149 </v>
   <v>       0.49771138       0.00168244       0.00130851 </v>
   <v>       0.25844712       0.78315735       0.75050217 </v>
   <v>       0.00844712       0.46684265       0.74949783 </v>
   <v>       0.50844712       0.46684265       0.74949783 </v>
   <v>       0.98815369       0.03103733       0.14204156 </v>
   <v>       0.00004115       0.00321628       0.62430659 </v>
   <v>       0.00026486       0.50212119       0.12564796 </v>
   <v>       0.99153195       0.51860315       0.63516276 </v>
   <v>       0.48815369       0.03103733       0.14204156 </v>
   <v>       0.50004115       0.00321628       0.62430659 </v>
   <v>       0.50026486       0.50212119       0.12564796 </v>
   <v>       0.49153195       0.51860315       0.63516276 </v>
   <v>       0.99153195       0.01860315       0.36483724 </v>
   <v>       0.00026486       0.00212119       0.87435204 </v>
   <v>       0.00004115       0.50321628       0.37569341 </v>
   <v>       0.98815369       0.53103733       0.85795844 </v>
   <v>       0.49153195       0.01860315       0.36483724 </v>
   <v>       0.50026486       0.00212119       0.87435204 </v>
   <v>       0.50004115       0.50321628       0.37569341 </v>
   <v>       0.48815369       0.53103733       0.85795844 </v>
   <v>       0.23815369       0.21896267       0.35795844 </v>
   <v>       0.25004115       0.24678372       0.87569341 </v>
   <v>       0.25026486       0.74787881       0.37435204 </v>
   <v>       0.24153195       0.73139685       0.86483724 </v>
   <v>       0.73815369       0.21896267       0.35795844 </v>
   <v>       0.75004115       0.24678372       0.87569341 </v>
   <v>       0.75026486       0.74787881       0.37435204 </v>
   <v>       0.74153195       0.73139685       0.86483724 </v>
   <v>       0.24153195       0.23139685       0.13516276 </v>
   <v>       0.25026486       0.24787881       0.62564796 </v>
   <v>       0.25004115       0.74678372       0.12430659 </v>
   <v>       0.23815369       0.71896267       0.64204156 </v>
   <v>       0.74153195       0.23139685       0.13516276 </v>
   <v>       0.75026486       0.24787881       0.62564796 </v>
   <v>       0.75004115       0.74678372       0.12430659 </v>
   <v>       0.73815369       0.71896267       0.64204156 </v>
   <v>       0.15338590       0.41045908       0.25097032 </v>
   <v>       0.41533022       0.34320697       0.25104167 </v>
   <v>       0.65338590       0.41045908       0.25097032 </v>
   <v>       0.91533022       0.34320697       0.25104167 </v>
   <v>       0.10416902       0.64999192       0.24995228 </v>
   <v>       0.35416902       0.60000808       0.25004772 </v>
   <v>       0.60416902       0.64999192       0.24995228 </v>
   <v>       0.85416902       0.60000808       0.25004772 </v>
   <v>       0.16533022       0.90679303       0.24895833 </v>
   <v>       0.40338590       0.83954092       0.24902968 </v>
   <v>       0.66533022       0.90679303       0.24895833 </v>
   <v>       0.90338590       0.83954092       0.24902968 </v>
   <v>       0.12635078       0.11881750       0.49938267 </v>
   <v>       0.37788389       0.12917954       0.49900676 </v>
   <v>       0.62635078       0.11881750       0.49938267 </v>
   <v>       0.87788389       0.12917954       0.49900676 </v>
   <v>       0.11623770       0.37051591       0.50293558 </v>
   <v>       0.36742912       0.37985459       0.49542598 </v>
   <v>       0.61623770       0.37051591       0.50293558 </v>
   <v>       0.86742912       0.37985459       0.49542598 </v>
   <v>       0.12635078       0.61881750       0.50061733 </v>
   <v>       0.37788389       0.62917954       0.50099324 </v>
   <v>       0.62635078       0.61881750       0.50061733 </v>
   <v>       0.87788389       0.62917954       0.50099324 </v>
   <v>       0.11623770       0.87051591       0.49706442 </v>
   <v>       0.36742912       0.87985459       0.50457402 </v>
   <v>       0.61623770       0.87051591       0.49706442 </v>
   <v>       0.86742912       0.87985459       0.50457402 </v>
   <v>       0.10416902       0.14999192       0.75004772 </v>
   <v>       0.35416902       0.10000808       0.74995228 </v>
   <v>       0.60416902       0.14999192       0.75004772 </v>
   <v>       0.85416902       0.10000808       0.74995228 </v>
   <v>       0.16533022       0.40679303       0.75104167 </v>
   <v>       0.40338590       0.33954092       0.75097032 </v>
   <v>       0.66533022       0.40679303       0.75104167 </v>
   <v>       0.90338590       0.33954092       0.75097032 </v>
   <v>       0.15338590       0.91045908       0.74902968 </v>
   <v>       0.41533022       0.84320697       0.74895833 </v>
   <v>       0.65338590       0.91045908       0.74902968 </v>
   <v>       0.91533022       0.84320697       0.74895833 </v>
   <v>       0.12788389       0.12082046       0.00099324 </v>
   <v>       0.37635078       0.13118250       0.00061733 </v>
   <v>       0.62788389       0.12082046       0.00099324 </v>
   <v>       0.87635078       0.13118250       0.00061733 </v>
   <v>       0.11742912       0.37014541       0.99542598 </v>
   <v>       0.36623770       0.37948409       0.00293558 </v>
   <v>       0.61742912       0.37014541       0.99542598 </v>
   <v>       0.86623770       0.37948409       0.00293558 </v>
   <v>       0.12788389       0.62082046       0.99900676 </v>
   <v>       0.37635078       0.63118250       0.99938267 </v>
   <v>       0.62788389       0.62082046       0.99900676 </v>
   <v>       0.87635078       0.63118250       0.99938267 </v>
   <v>       0.11742912       0.87014541       0.00457402 </v>
   <v>       0.36623770       0.87948409       0.99706442 </v>
   <v>       0.61742912       0.87014541       0.00457402 </v>
   <v>       0.86623770       0.87948409       0.99706442 </v>
  </varray>
 </structure>
</modeling>
