       N       E                     dE             d eps       ncg     rms          rms(c)
DAV:   1     0.122148396491E+05    0.12215E+05   -0.42865E+05  3072   0.133E+03
DAV:   2     0.755098848165E+03   -0.11460E+05   -0.10240E+05  3080   0.383E+02
DAV:   3    -0.133788886628E+04   -0.20930E+04   -0.20105E+04  3320   0.170E+02
DAV:   4    -0.148946963422E+04   -0.15158E+03   -0.14911E+03  4040   0.486E+01
DAV:   5    -0.149964007488E+04   -0.10170E+02   -0.10124E+02  5544   0.117E+01    0.179E+02
RMM:   6    -0.116063285178E+04    0.33901E+03   -0.16891E+03  3158   0.370E+01    0.143E+02
RMM:   7    -0.114054857169E+04    0.20084E+02   -0.66202E+01  3201   0.128E+01    0.830E+01
RMM:   8    -0.114289260999E+04   -0.23440E+01   -0.21576E+01  3483   0.498E+00    0.415E+01
RMM:   9    -0.114771741983E+04   -0.48248E+01   -0.10250E+01  3171   0.386E+00    0.139E+01
RMM:  10    -0.114863804108E+04   -0.92062E+00   -0.26967E+00  3429   0.184E+00    0.724E+00
RMM:  11    -0.114983332421E+04   -0.11953E+01   -0.13866E+00  3589   0.974E-01    0.437E+00
RMM:  12    -0.115057976502E+04   -0.74644E+00   -0.65274E-01  3475   0.774E-01    0.234E+00
RMM:  13    -0.115083586499E+04   -0.25610E+00   -0.28803E-01  3679   0.485E-01    0.132E+00
RMM:  14    -0.115089942573E+04   -0.63561E-01   -0.11938E-01  3615   0.304E-01    0.810E-01
RMM:  15    -0.115091095986E+04   -0.11534E-01   -0.41707E-02  3706   0.197E-01    0.600E-01
RMM:  16    -0.115091485645E+04   -0.38966E-02   -0.17866E-02  4048   0.105E-01    0.354E-01
RMM:  17    -0.115091457124E+04    0.28522E-03   -0.58248E-03  3387   0.696E-02    0.991E-02
RMM:  18    -0.115091479029E+04   -0.21906E-03   -0.23718E-03  3316   0.302E-02    0.461E-02
RMM:  19    -0.115091490009E+04   -0.10980E-03   -0.10649E-03  2570   0.216E-02    0.175E-02
RMM:  20    -0.115091496949E+04   -0.69402E-04   -0.63770E-04  2478   0.154E-02
   1 F= -.11509150E+04 E0= -.11509150E+04  d E =-.115091E+04  mag=    20.0006
       N       E                     dE             d eps       ncg     rms          rms(c)
DAV:   1    -0.112350565473E+04    0.27409E+02   -0.63547E+02  3704   0.245E+01    0.223E+01
RMM:   2    -0.115248263134E+04   -0.28977E+02   -0.47073E+01  3239   0.762E+00    0.382E+01
RMM:   3    -0.115272720391E+04   -0.24457E+00   -0.26342E+00  3215   0.257E+00    0.119E+01
RMM:   4    -0.115264051432E+04    0.86690E-01   -0.17366E+00  3343   0.139E+00    0.330E+00
RMM:   5    -0.115261762108E+04    0.22893E-01   -0.20265E-01  3404   0.489E-01    0.353E+00
RMM:   6    -0.115261292421E+04    0.46969E-02   -0.69317E-02  3568   0.255E-01    0.192E+00
RMM:   7    -0.115261593289E+04   -0.30087E-02   -0.26588E-02  3775   0.159E-01    0.123E+00
RMM:   8    -0.115261613336E+04   -0.20047E-03   -0.39168E-03  4369   0.622E-02    0.552E-01
RMM:   9    -0.115261555950E+04    0.57386E-03   -0.32873E-03  3531   0.486E-02    0.282E-01
RMM:  10    -0.115261552349E+04    0.36014E-04   -0.52581E-04  2730   0.273E-02
   2 F= -.11526155E+04 E0= -.11526155E+04  d E =-.170055E+01  mag=    20.0000
       N       E                     dE             d eps       ncg     rms          rms(c)
DAV:   1    -0.115260536209E+04    0.10197E-01   -0.13534E+00  3536   0.110E+00    0.107E+00
RMM:   2    -0.115261762322E+04   -0.12261E-01   -0.33135E-02  3131   0.220E-01    0.617E-01
RMM:   3    -0.115261992295E+04   -0.22997E-02   -0.22406E-03  3035   0.836E-02    0.340E-01
RMM:   4    -0.115261978364E+04    0.13931E-03   -0.13889E-03  2984   0.399E-02    0.139E-01
RMM:   5    -0.115261980778E+04   -0.24135E-04   -0.28456E-04  2138   0.231E-02    0.137E-01
RMM:   6    -0.115261981012E+04   -0.23398E-05   -0.46609E-05  1883   0.103E-02    0.349E-02
RMM:   7    -0.115261981339E+04   -0.32710E-05   -0.21615E-05  1823   0.618E-03    0.188E-02
RMM:   8    -0.115261981839E+04   -0.50044E-05   -0.13619E-05  1804   0.491E-03
   3 F= -.11526198E+04 E0= -.11526198E+04  d E =-.170485E+01  mag=    20.0000
       N       E                     dE             d eps       ncg     rms          rms(c)
DAV:   1    -0.115262745713E+04   -0.76437E-02   -0.23272E+02  3152   0.169E+01    0.866E+00
RMM:   2    -0.115313812534E+04   -0.51067E+00   -0.72036E+00  3101   0.345E+00    0.566E+00
RMM:   3    -0.115313432371E+04    0.38016E-02   -0.45673E-01  3298   0.112E+00    0.310E+00
RMM:   4    -0.115308415908E+04    0.50165E-01   -0.15677E-01  3415   0.444E-01    0.220E+00
RMM:   5    -0.115307271099E+04    0.11448E-01   -0.50659E-02  3415   0.243E-01    0.167E+00
RMM:   6    -0.115307126150E+04    0.14495E-02   -0.15184E-02  3850   0.132E-01    0.557E-01
RMM:   7    -0.115307135272E+04   -0.91220E-04   -0.35137E-03  4381   0.553E-02    0.290E-01
RMM:   8    -0.115307145723E+04   -0.10451E-03   -0.13366E-03  4049   0.324E-02    0.844E-02
RMM:   9    -0.115307146539E+04   -0.81646E-05   -0.45776E-04  2700   0.190E-02
   4 F= -.11530715E+04 E0= -.11530715E+04  d E =-.451647E+00  mag=    20.0000
       N       E                     dE             d eps       ncg     rms          rms(c)
DAV:   1    -0.115307261995E+04   -0.11627E-02   -0.16398E+00  3552   0.142E+00    0.742E-01
RMM:   2    -0.115307581118E+04   -0.31912E-02   -0.51366E-02  3098   0.291E-01    0.480E-01
RMM:   3    -0.115307562578E+04    0.18540E-03   -0.32180E-03  3304   0.936E-02    0.259E-01
RMM:   4    -0.115307526505E+04    0.36073E-03   -0.12502E-03  3160   0.392E-02    0.164E-01
RMM:   5    -0.115307522302E+04    0.42029E-04   -0.34107E-04  2209   0.249E-02    0.130E-01
RMM:   6    -0.115307523178E+04   -0.87510E-05   -0.10112E-04  1851   0.136E-02    0.513E-02
RMM:   7    -0.115307524351E+04   -0.11730E-04   -0.29602E-05  1761   0.757E-03    0.236E-02
RMM:   8    -0.115307525602E+04   -0.12518E-04   -0.17919E-05  1705   0.535E-03
   5 F= -.11530753E+04 E0= -.11530753E+04  d E =-.455438E+00  mag=    20.0000
       N       E                     dE             d eps       ncg     rms          rms(c)
DAV:   1    -0.115315174282E+04   -0.76499E-01   -0.45955E+01  3104   0.794E+00    0.253E+00
RMM:   2    -0.115319284281E+04   -0.41100E-01   -0.13148E+00  3100   0.149E+00    0.189E+00
RMM:   3    -0.115317375061E+04    0.19092E-01   -0.78294E-02  3250   0.491E-01    0.114E+00
RMM:   4    -0.115315918791E+04    0.14563E-01   -0.40046E-02  3268   0.222E-01    0.583E-01
RMM:   5    -0.115315662612E+04    0.25618E-02   -0.69348E-03  3527   0.987E-02    0.238E-01
RMM:   6    -0.115315661869E+04    0.74217E-05   -0.15680E-03  3848   0.377E-02    0.149E-01
RMM:   7    -0.115315662029E+04   -0.15956E-05   -0.41166E-04  2839   0.214E-02    0.108E-01
RMM:   8    -0.115315664528E+04   -0.24994E-04   -0.18551E-04  2154   0.157E-02
   6 F= -.11531566E+04 E0= -.11531566E+04  d E =-.813893E-01  mag=    20.0000
       N       E                     dE             d eps       ncg     rms          rms(c)
DAV:   1    -0.115316734059E+04   -0.10720E-01   -0.32351E+00  3216   0.210E+00    0.667E-01
RMM:   2    -0.115317034400E+04   -0.30034E-02   -0.91644E-02  3102   0.394E-01    0.489E-01
RMM:   3    -0.115316895501E+04    0.13890E-02   -0.53938E-03  3200   0.129E-01    0.293E-01
RMM:   4    -0.115316789305E+04    0.10620E-02   -0.29676E-03  3168   0.619E-02    0.155E-01
RMM:   5    -0.115316773190E+04    0.16115E-03   -0.39110E-04  2522   0.271E-02    0.745E-02
RMM:   6    -0.115316771907E+04    0.12833E-04   -0.90659E-05  1876   0.114E-02    0.399E-02
RMM:   7    -0.115316771745E+04    0.16203E-05   -0.30449E-05  1781   0.859E-03    0.354E-02
RMM:   8    -0.115316771696E+04    0.48972E-06   -0.16862E-05  1726   0.606E-03
   7 F= -.11531677E+04 E0= -.11531677E+04  d E =-.924609E-01  mag=    20.0000
       N       E                     dE             d eps       ncg     rms          rms(c)
DAV:   1    -0.115321002701E+04   -0.42310E-01   -0.13591E+01  3088   0.439E+00    0.181E+00
RMM:   2    -0.115321690174E+04   -0.68747E-02   -0.41042E-01  3097   0.813E-01    0.130E+00
RMM:   3    -0.115320937020E+04    0.75315E-02   -0.25847E-02  3171   0.302E-01    0.662E-01
RMM:   4    -0.115320647825E+04    0.28919E-02   -0.10557E-02  3375   0.114E-01    0.456E-01
RMM:   5    -0.115320609153E+04    0.38672E-03   -0.18333E-03  3540   0.533E-02    0.254E-01
RMM:   6    -0.115320606295E+04    0.28580E-04   -0.75816E-04  3240   0.254E-02    0.117E-01
RMM:   7    -0.115320611395E+04   -0.50999E-04   -0.25442E-04  2165   0.185E-02    0.854E-02
RMM:   8    -0.115320614362E+04   -0.29666E-04   -0.10937E-04  1870   0.140E-02
   8 F= -.11532061E+04 E0= -.11532061E+04  d E =-.384267E-01  mag=    20.0000
       N       E                     dE             d eps       ncg     rms          rms(c)
DAV:   1    -0.115321640509E+04   -0.10291E-01   -0.10402E+01  3104   0.384E+00    0.158E+00
RMM:   2    -0.115322177298E+04   -0.53679E-02   -0.31409E-01  3096   0.711E-01    0.114E+00
RMM:   3    -0.115321613865E+04    0.56343E-02   -0.19845E-02  3177   0.264E-01    0.578E-01
RMM:   4    -0.115321401355E+04    0.21251E-02   -0.83133E-03  3435   0.997E-02    0.395E-01
RMM:   5    -0.115321373115E+04    0.28240E-03   -0.14451E-03  3567   0.457E-02    0.221E-01
RMM:   6    -0.115321371900E+04    0.12147E-04   -0.58295E-04  3056   0.226E-02    0.102E-01
RMM:   7    -0.115321376560E+04   -0.46601E-04   -0.21968E-04  2097   0.171E-02    0.771E-02
RMM:   8    -0.115321379116E+04   -0.25560E-04   -0.10249E-04  1863   0.134E-02
   9 F= -.11532138E+04 E0= -.11532138E+04  d E =-.460742E-01  mag=    20.0000
       N       E                     dE             d eps       ncg     rms          rms(c)
DAV:   1    -0.115322103740E+04   -0.72718E-02   -0.11776E+01  3200   0.402E+00    0.144E+00
RMM:   2    -0.115324237476E+04   -0.21337E-01   -0.32233E-01  3141   0.724E-01    0.100E+00
RMM:   3    -0.115324059536E+04    0.17794E-02   -0.19243E-02  3289   0.246E-01    0.510E-01
RMM:   4    -0.115323943965E+04    0.11557E-02   -0.77068E-03  3740   0.896E-02    0.292E-01
RMM:   5    -0.115323921745E+04    0.22220E-03   -0.13198E-03  3640   0.359E-02    0.144E-01
RMM:   6    -0.115323923752E+04   -0.20076E-04   -0.34082E-04  2293   0.174E-02    0.824E-02
RMM:   7    -0.115323923673E+04    0.79481E-06   -0.14298E-04  1914   0.139E-02    0.466E-02
RMM:   8    -0.115323923184E+04    0.48861E-05   -0.71698E-05  1838   0.107E-02
  10 F= -.11532392E+04 E0= -.11532392E+04  d E =-.254407E-01  mag=    20.0000
       N       E                     dE             d eps       ncg     rms          rms(c)
DAV:   1    -0.115322522840E+04    0.14008E-01   -0.15086E+01  3168   0.455E+00    0.162E+00
RMM:   2    -0.115325298864E+04   -0.27760E-01   -0.41263E-01  3140   0.819E-01    0.113E+00
RMM:   3    -0.115325084579E+04    0.21429E-02   -0.24602E-02  3282   0.280E-01    0.570E-01
RMM:   4    -0.115324940284E+04    0.14430E-02   -0.93081E-03  3751   0.996E-02    0.334E-01
RMM:   5    -0.115324910873E+04    0.29410E-03   -0.17122E-03  3829   0.404E-02    0.165E-01
RMM:   6    -0.115324913919E+04   -0.30456E-04   -0.44259E-04  2615   0.194E-02    0.935E-02
RMM:   7    -0.115324914368E+04   -0.44876E-05   -0.19787E-04  2023   0.147E-02    0.459E-02
RMM:   8    -0.115324913592E+04    0.77600E-05   -0.80974E-05  1869   0.116E-02
  11 F= -.11532491E+04 E0= -.11532491E+04  d E =-.353448E-01  mag=    20.0000
       N       E                     dE             d eps       ncg     rms          rms(c)
DAV:   1    -0.115326029948E+04   -0.11156E-01   -0.39811E+00  3136   0.238E+00    0.853E-01
RMM:   2    -0.115326529442E+04   -0.49949E-02   -0.10974E-01  3105   0.450E-01    0.564E-01
RMM:   3    -0.115326393243E+04    0.13620E-02   -0.73189E-03  3385   0.135E-01    0.348E-01
RMM:   4    -0.115326290391E+04    0.10285E-02   -0.25646E-03  3391   0.562E-02    0.152E-01
RMM:   5    -0.115326281724E+04    0.86673E-04   -0.37253E-04  2422   0.258E-02    0.537E-02
RMM:   6    -0.115326283103E+04   -0.13793E-04   -0.93704E-05  1838   0.124E-02    0.292E-02
RMM:   7    -0.115326284001E+04   -0.89742E-05   -0.47210E-05  1819   0.986E-03    0.180E-02
RMM:   8    -0.115326284410E+04   -0.40966E-05   -0.24155E-05  1750   0.645E-03
  12 F= -.11532628E+04 E0= -.11532628E+04  d E =-.137082E-01  mag=    20.0000
       N       E                     dE             d eps       ncg     rms          rms(c)
DAV:   1    -0.115326438697E+04   -0.15470E-02   -0.25547E+00  3104   0.190E+00    0.682E-01
RMM:   2    -0.115326759191E+04   -0.32049E-02   -0.70207E-02  3101   0.361E-01    0.453E-01
RMM:   3    -0.115326673130E+04    0.86061E-03   -0.47146E-03  3341   0.109E-01    0.279E-01
RMM:   4    -0.115326607728E+04    0.65402E-03   -0.16095E-03  3273   0.453E-02    0.123E-01
RMM:   5    -0.115326602211E+04    0.55177E-04   -0.21806E-04  2038   0.226E-02    0.436E-02
RMM:   6    -0.115326603439E+04   -0.12282E-04   -0.76720E-05  1814   0.114E-02    0.238E-02
RMM:   7    -0.115326604090E+04   -0.65155E-05   -0.31970E-05  1793   0.927E-03    0.147E-02
RMM:   8    -0.115326604522E+04   -0.43136E-05   -0.21706E-05  1712   0.531E-03
  13 F= -.11532660E+04 E0= -.11532660E+04  d E =-.169093E-01  mag=    20.0000
       N       E                     dE             d eps       ncg     rms          rms(c)
DAV:   1    -0.115326780324E+04   -0.17623E-02   -0.27849E+00  3120   0.195E+00    0.507E-01
RMM:   2    -0.115327354683E+04   -0.57436E-02   -0.69359E-02  3133   0.338E-01    0.325E-01
RMM:   3    -0.115327330173E+04    0.24510E-03   -0.37281E-03  3195   0.111E-01    0.202E-01
RMM:   4    -0.115327293936E+04    0.36237E-03   -0.13985E-03  3435   0.412E-02    0.812E-02
RMM:   5    -0.115327291859E+04    0.20771E-04   -0.20874E-04  2078   0.184E-02    0.391E-02
RMM:   6    -0.115327292342E+04   -0.48290E-05   -0.59950E-05  1793   0.111E-02    0.267E-02
RMM:   7    -0.115327292717E+04   -0.37490E-05   -0.36473E-05  1771   0.834E-03    0.137E-02
RMM:   8    -0.115327293005E+04   -0.28842E-05   -0.23542E-05  1680   0.644E-03
  14 F= -.11532729E+04 E0= -.11532729E+04  d E =-.688483E-02  mag=    20.0000
       N       E                     dE             d eps       ncg     rms          rms(c)
DAV:   1    -0.115327031964E+04    0.26075E-02   -0.27155E+00  3104   0.193E+00    0.501E-01
RMM:   2    -0.115327594672E+04   -0.56271E-02   -0.67919E-02  3140   0.334E-01    0.323E-01
RMM:   3    -0.115327570073E+04    0.24598E-03   -0.36668E-03  3201   0.109E-01    0.200E-01
RMM:   4    -0.115327534570E+04    0.35503E-03   -0.13812E-03  3433   0.408E-02    0.795E-02
RMM:   5    -0.115327532472E+04    0.20980E-04   -0.20602E-04  2080   0.182E-02    0.365E-02
RMM:   6    -0.115327532936E+04   -0.46325E-05   -0.58850E-05  1797   0.111E-02    0.268E-02
RMM:   7    -0.115327533322E+04   -0.38591E-05   -0.37981E-05  1770   0.828E-03    0.138E-02
RMM:   8    -0.115327533597E+04   -0.27493E-05   -0.23552E-05  1680   0.649E-03
  15 F= -.11532753E+04 E0= -.11532753E+04  d E =-.929075E-02  mag=    20.0000
       N       E                     dE             d eps       ncg     rms          rms(c)
DAV:   1    -0.115327453849E+04    0.79473E-03   -0.23495E+00  3192   0.176E+00    0.451E-01
RMM:   2    -0.115328066761E+04   -0.61291E-02   -0.57216E-02  3187   0.303E-01    0.295E-01
RMM:   3    -0.115328082617E+04   -0.15856E-03   -0.28249E-03  3201   0.921E-02    0.166E-01
RMM:   4    -0.115328068840E+04    0.13777E-03   -0.60020E-04  2906   0.287E-02    0.922E-02
RMM:   5    -0.115328064197E+04    0.46427E-04   -0.29146E-04  2171   0.195E-02    0.411E-02
RMM:   6    -0.115328064571E+04   -0.37433E-05   -0.60657E-05  1772   0.126E-02    0.392E-02
RMM:   7    -0.115328064877E+04   -0.30539E-05   -0.29893E-05  1742   0.755E-03    0.134E-02
RMM:   8    -0.115328065075E+04   -0.19821E-05   -0.18870E-05  1700   0.691E-03
  16 F= -.11532807E+04 E0= -.11532807E+04  d E =-.531478E-02  mag=    20.0000
       N       E                     dE             d eps       ncg     rms          rms(c)
DAV:   1    -0.115326896877E+04    0.11680E-01   -0.58133E+00  3176   0.277E+00    0.711E-01
RMM:   2    -0.115328405974E+04   -0.15091E-01   -0.14088E-01  3165   0.475E-01    0.466E-01
RMM:   3    -0.115328449174E+04   -0.43200E-03   -0.69557E-03  3228   0.147E-01    0.260E-01
RMM:   4    -0.115328416221E+04    0.32953E-03   -0.15860E-03  3726   0.452E-02    0.145E-01
RMM:   5    -0.115328405376E+04    0.10845E-03   -0.76984E-04  2976   0.262E-02    0.716E-02
RMM:   6    -0.115328405364E+04    0.12088E-06   -0.11767E-04  1877   0.150E-02    0.505E-02
RMM:   7    -0.115328405813E+04   -0.44859E-05   -0.47728E-05  1780   0.932E-03    0.183E-02
RMM:   8    -0.115328406159E+04   -0.34677E-05   -0.35648E-05  1745   0.826E-03
  17 F= -.11532841E+04 E0= -.11532841E+04  d E =-.872563E-02  mag=    20.0000
       N       E                     dE             d eps       ncg     rms          rms(c)
DAV:   1    -0.115328508164E+04   -0.10235E-02   -0.12375E+00  3136   0.128E+00    0.362E-01
RMM:   2    -0.115328771178E+04   -0.26301E-02   -0.30634E-02  3081   0.222E-01    0.221E-01
RMM:   3    -0.115328764773E+04    0.64055E-04   -0.16740E-03  3042   0.712E-02    0.133E-01
RMM:   4    -0.115328748182E+04    0.16591E-03   -0.64431E-04  2861   0.270E-02    0.559E-02
RMM:   5    -0.115328747292E+04    0.88923E-05   -0.80718E-05  1814   0.147E-02    0.428E-02
RMM:   6    -0.115328747571E+04   -0.27832E-05   -0.33429E-05  1772   0.784E-03    0.228E-02
RMM:   7    -0.115328747651E+04   -0.79857E-06   -0.15478E-05  1657   0.609E-03    0.136E-02
RMM:   8    -0.115328747657E+04   -0.62995E-07   -0.12599E-05  1597   0.438E-03
  18 F= -.11532875E+04 E0= -.11532875E+04  d E =-.341498E-02  mag=    20.0000
       N       E                     dE             d eps       ncg     rms          rms(c)
DAV:   1    -0.115328564346E+04    0.18330E-02   -0.16435E+00  3104   0.148E+00    0.416E-01
RMM:   2    -0.115328912096E+04   -0.34775E-02   -0.40511E-02  3082   0.256E-01    0.254E-01
RMM:   3    -0.115328904318E+04    0.77777E-04   -0.22349E-03  3083   0.822E-02    0.153E-01
RMM:   4    -0.115328882264E+04    0.22054E-03   -0.83086E-04  3001   0.309E-02    0.632E-02
RMM:   5    -0.115328881086E+04    0.11784E-04   -0.10468E-04  1853   0.163E-02    0.471E-02
RMM:   6    -0.115328881408E+04   -0.32281E-05   -0.39716E-05  1785   0.879E-03    0.263E-02
RMM:   7    -0.115328881520E+04   -0.11130E-05   -0.18912E-05  1724   0.663E-03    0.159E-02
RMM:   8    -0.115328881531E+04   -0.11032E-06   -0.14849E-05  1665   0.498E-03
  19 F= -.11532888E+04 E0= -.11532888E+04  d E =-.475371E-02  mag=    20.0000
       N       E                     dE             d eps       ncg     rms          rms(c)
DAV:   1    -0.115328692758E+04    0.18876E-02   -0.17920E+00  3104   0.155E+00    0.340E-01
RMM:   2    -0.115329092269E+04   -0.39951E-02   -0.46766E-02  3107   0.281E-01    0.275E-01
RMM:   3    -0.115329088428E+04    0.38410E-04   -0.25369E-03  3165   0.870E-02    0.201E-01
RMM:   4    -0.115329077814E+04    0.10614E-03   -0.44553E-04  2518   0.247E-02    0.135E-01
RMM:   5    -0.115329072406E+04    0.54079E-04   -0.34306E-04  2192   0.210E-02    0.546E-02
RMM:   6    -0.115329072801E+04   -0.39576E-05   -0.55821E-05  1791   0.128E-02    0.400E-02
RMM:   7    -0.115329073105E+04   -0.30321E-05   -0.27189E-05  1753   0.666E-03    0.139E-02
RMM:   8    -0.115329073361E+04   -0.25652E-05   -0.14979E-05  1719   0.646E-03
  20 F= -.11532907E+04 E0= -.11532907E+04  d E =-.191830E-02  mag=    20.0000
       N       E                     dE             d eps       ncg     rms          rms(c)
DAV:   1    -0.115329035179E+04    0.37925E-03   -0.26801E-01  3216   0.600E-01    0.130E-01
RMM:   2    -0.115329096004E+04   -0.60825E-03   -0.70697E-03  3112   0.108E-01    0.105E-01
RMM:   3    -0.115329094676E+04    0.13284E-04   -0.33279E-04  2141   0.336E-02    0.794E-02
RMM:   4    -0.115329093447E+04    0.12286E-04   -0.71638E-05  1769   0.116E-02    0.533E-02
RMM:   5    -0.115329092906E+04    0.54157E-05   -0.50785E-05  1753   0.915E-03    0.226E-02
RMM:   6    -0.115329093117E+04   -0.21152E-05   -0.16550E-05  1690   0.643E-03    0.179E-02
RMM:   7    -0.115329093223E+04   -0.10562E-05   -0.82652E-06  1487   0.392E-03    0.538E-03
RMM:   8    -0.115329093305E+04   -0.82009E-06   -0.48055E-06  1282   0.357E-03
  21 F= -.11532909E+04 E0= -.11532909E+04  d E =-.211774E-02  mag=    20.0000
       N       E                     dE             d eps       ncg     rms          rms(c)
DAV:   1    -0.115329064259E+04    0.28964E-03   -0.12891E+00  3104   0.133E+00    0.310E-01
RMM:   2    -0.115329321241E+04   -0.25698E-02   -0.31542E-02  3101   0.228E-01    0.225E-01
RMM:   3    -0.115329313215E+04    0.80263E-04   -0.16032E-03  3037   0.749E-02    0.149E-01
RMM:   4    -0.115329301288E+04    0.11927E-03   -0.44840E-04  2474   0.240E-02    0.776E-02
RMM:   5    -0.115329298775E+04    0.25124E-04   -0.13061E-04  1803   0.162E-02    0.408E-02
RMM:   6    -0.115329299225E+04   -0.44947E-05   -0.39241E-05  1758   0.108E-02    0.316E-02
RMM:   7    -0.115329299434E+04   -0.20918E-05   -0.21738E-05  1702   0.621E-03    0.105E-02
RMM:   8    -0.115329299582E+04   -0.14836E-05   -0.12613E-05  1643   0.602E-03
  22 F= -.11532930E+04 E0= -.11532930E+04  d E =-.206278E-02  mag=    20.0000
