<?xml version="1.0" encoding="ISO-8859-1"?>
<modeling>
 <generator>
  <i name="program" type="string">vasp </i>
  <i name="version" type="string">5.4.1  </i>
  <i name="subversion" type="string">05Feb16 (build Jan 25 2017 20:16:33) complex                          parallel </i>
  <i name="platform" type="string">BWXE6 </i>
  <i name="date" type="string">2019 08 10 </i>
  <i name="time" type="string">23:04:39 </i>
 </generator>
 <incar>
  <i type="string" name="SYSTEM"> STF</i>
  <i type="string" name="PREC">normal</i>
  <i type="string" name="ALGO"> Fast</i>
  <i type="int" name="ISPIN">     2</i>
  <i type="int" name="NELM">    40</i>
  <i type="int" name="NELMIN">     8</i>
  <i type="int" name="IBRION">     2</i>
  <i name="EDIFF">      0.00010000</i>
  <i name="EDIFFG">     -0.03000000</i>
  <i type="int" name="NSW">    30</i>
  <i type="int" name="ISIF">     3</i>
  <i name="ENCUT">    520.00000000</i>
  <i type="int" name="NBANDS">   768</i>
  <v name="MAGMOM">      0.60000000      0.60000000      0.60000000      0.60000000      0.60000000      0.60000000      0.60000000      0.60000000      0.60000000      0.60000000      0.60000000      0.60000000      0.60000000      0.60000000      0.60000000      0.60000000      0.60000000      0.60000000      0.60000000      0.60000000
      0.60000000      0.60000000      0.60000000      0.60000000      0.60000000      0.60000000      0.60000000      0.60000000      0.60000000      0.60000000      0.60000000      0.60000000      0.60000000      0.60000000      0.60000000      0.60000000      0.60000000      0.60000000      0.60000000      0.60000000
      0.60000000      0.60000000      0.60000000      0.60000000      0.60000000      0.60000000      0.60000000      0.60000000      0.60000000      0.60000000      0.60000000      0.60000000      0.60000000      0.60000000      0.60000000      0.60000000      0.60000000      0.60000000      0.60000000      0.60000000
      5.00000000      5.00000000      5.00000000      5.00000000      0.60000000      0.60000000      0.60000000      0.60000000      0.60000000      0.60000000      0.60000000      0.60000000      0.60000000      0.60000000      0.60000000      0.60000000      0.60000000      0.60000000      0.60000000      0.60000000
      0.60000000      0.60000000      0.60000000      0.60000000      0.60000000      0.60000000      0.60000000      0.60000000      0.60000000      0.60000000      0.60000000      0.60000000      0.60000000      0.60000000      0.60000000      0.60000000      0.60000000      0.60000000      0.60000000      0.60000000
      0.60000000      0.60000000      0.60000000      0.60000000      0.60000000      0.60000000      0.60000000      0.60000000      0.60000000      0.60000000      0.60000000      0.60000000      0.60000000      0.60000000      0.60000000      0.60000000      0.60000000      0.60000000      0.60000000      0.60000000
      0.60000000      0.60000000      0.60000000      0.60000000      0.60000000      0.60000000      0.60000000      0.60000000      0.60000000      0.60000000      0.60000000      0.60000000      0.60000000      0.60000000      0.60000000      0.60000000      0.60000000      0.60000000      0.60000000      0.60000000
      0.60000000      0.60000000      0.60000000      0.60000000      0.60000000      0.60000000      0.60000000      0.60000000      0.60000000      0.60000000      0.60000000      0.60000000      0.60000000      0.60000000      0.60000000      0.60000000      0.60000000      0.60000000</v>
  <i type="string" name="LREAL"> Auto</i>
  <i type="int" name="ISMEAR">     0</i>
  <i name="SIGMA">      0.05000000</i>
  <i type="int" name="LMAXMIX">     4</i>
  <v type="int" name="KPOINT_BSE">    -1     0     0     0</v>
  <i type="int" name="NELM">    40</i>
  <i type="logical" name="LDAU"> T  </i>
  <v type="int" name="LDAUTYPE">     2</v>
  <v type="int" name="LDAUL">     0     2     2     0</v>
  <v name="LDAUU">      0.00000000      3.00000000      5.00000000      0.00000000</v>
  <v name="LDAUJ">      0.00000000      0.00000000      0.00000000      0.00000000</v>
  <i type="int" name="LDAUPRINT">     1</i>
 </incar>
 <kpoints>
  <generation param="Monkhorst-Pack">
   <v type="int" name="divisions">       2        2        2 </v>
   <v name="usershift">      0.00000000       0.00000000       0.00000000 </v>
   <v name="genvec1">      0.50000000       0.00000000       0.00000000 </v>
   <v name="genvec2">      0.00000000       0.50000000       0.00000000 </v>
   <v name="genvec3">      0.00000000       0.00000000       0.50000000 </v>
   <v name="shift">      0.50000000       0.50000000       0.50000000 </v>
  </generation>
  <varray name="kpointlist" >
   <v>       0.25000000       0.25000000       0.25000000 </v>
  </varray>
  <varray name="weights" >
   <v>       1.00000000 </v>
  </varray>
 </kpoints>
 <parameters>
  <separator name="general" >
   <i type="string" name="SYSTEM">STF</i>
   <i type="logical" name="LCOMPAT"> F  </i>
  </separator>
  <separator name="electronic" >
   <i type="string" name="PREC">normal</i>
   <i name="ENMAX">    520.00000000</i>
   <i name="ENAUG">    605.39200000</i>
   <i name="EDIFF">      0.00010000</i>
   <i type="int" name="IALGO">    68</i>
   <i type="int" name="IWAVPR">    11</i>
   <i type="int" name="NBANDS">   768</i>
   <i name="NELECT">   1028.00000000</i>
   <i type="int" name="TURBO">     0</i>
   <i type="int" name="IRESTART">     0</i>
   <i type="int" name="NREBOOT">     0</i>
   <i type="int" name="NMIN">     0</i>
   <i name="EREF">      0.00000000</i>
   <separator name="electronic smearing" >
    <i type="int" name="ISMEAR">     0</i>
    <i name="SIGMA">      0.05000000</i>
    <i name="KSPACING">      0.50000000</i>
    <i type="logical" name="KGAMMA"> T  </i>
   </separator>
   <separator name="electronic projectors" >
    <i type="logical" name="LREAL"> T  </i>
    <v name="ROPT">     -0.00050000     -0.00050000     -0.00050000     -0.00050000</v>
    <i type="int" name="LMAXPAW">  -100</i>
    <i type="int" name="LMAXMIX">     4</i>
    <i type="logical" name="NLSPLINE"> F  </i>
   </separator>
   <separator name="electronic startup" >
    <i type="int" name="ISTART">     0</i>
    <i type="int" name="ICHARG">     2</i>
    <i type="int" name="INIWAV">     1</i>
   </separator>
   <separator name="electronic spin" >
    <i type="int" name="ISPIN">     2</i>
    <i type="logical" name="LNONCOLLINEAR"> F  </i>
    <v name="MAGMOM">      0.60000000      0.60000000      0.60000000      0.60000000      0.60000000      0.60000000      0.60000000      0.60000000      0.60000000      0.60000000      0.60000000      0.60000000      0.60000000      0.60000000      0.60000000      0.60000000      0.60000000      0.60000000      0.60000000      0.60000000
      0.60000000      0.60000000      0.60000000      0.60000000      0.60000000      0.60000000      0.60000000      0.60000000      0.60000000      0.60000000      0.60000000      0.60000000      0.60000000      0.60000000      0.60000000      0.60000000      0.60000000      0.60000000      0.60000000      0.60000000
      0.60000000      0.60000000      0.60000000      0.60000000      0.60000000      0.60000000      0.60000000      0.60000000      0.60000000      0.60000000      0.60000000      0.60000000      0.60000000      0.60000000      0.60000000      0.60000000      0.60000000      0.60000000      0.60000000      0.60000000
      5.00000000      5.00000000      5.00000000      5.00000000      0.60000000      0.60000000      0.60000000      0.60000000      0.60000000      0.60000000      0.60000000      0.60000000      0.60000000      0.60000000      0.60000000      0.60000000      0.60000000      0.60000000      0.60000000      0.60000000
      0.60000000      0.60000000      0.60000000      0.60000000      0.60000000      0.60000000      0.60000000      0.60000000      0.60000000      0.60000000      0.60000000      0.60000000      0.60000000      0.60000000      0.60000000      0.60000000      0.60000000      0.60000000      0.60000000      0.60000000
      0.60000000      0.60000000      0.60000000      0.60000000      0.60000000      0.60000000      0.60000000      0.60000000      0.60000000      0.60000000      0.60000000      0.60000000      0.60000000      0.60000000      0.60000000      0.60000000      0.60000000      0.60000000      0.60000000      0.60000000
      0.60000000      0.60000000      0.60000000      0.60000000      0.60000000      0.60000000      0.60000000      0.60000000      0.60000000      0.60000000      0.60000000      0.60000000      0.60000000      0.60000000      0.60000000      0.60000000      0.60000000      0.60000000      0.60000000      0.60000000
      0.60000000      0.60000000      0.60000000      0.60000000      0.60000000      0.60000000      0.60000000      0.60000000      0.60000000      0.60000000      0.60000000      0.60000000      0.60000000      0.60000000      0.60000000      0.60000000      0.60000000      0.60000000</v>
    <i name="NUPDOWN">     -1.00000000</i>
    <i type="logical" name="LSORBIT"> F  </i>
    <v name="SAXIS">      0.00000000      0.00000000      1.00000000</v>
    <i type="logical" name="LSPIRAL"> F  </i>
    <v name="QSPIRAL">      0.00000000      0.00000000      0.00000000</v>
    <i type="logical" name="LZEROZ"> F  </i>
   </separator>
   <separator name="electronic exchange-correlation" >
    <i type="logical" name="LASPH"> F  </i>
    <i type="logical" name="LMETAGGA"> F  </i>
   </separator>
   <separator name="electronic convergence" >
    <i type="int" name="NELM">    40</i>
    <i type="int" name="NELMDL">    -5</i>
    <i type="int" name="NELMIN">     8</i>
    <i name="ENINI">    520.00000000</i>
    <separator name="electronic convergence detail" >
     <i type="logical" name="LDIAG"> T  </i>
     <i type="logical" name="LSUBROT"> F  </i>
     <i name="WEIMIN">      0.00100000</i>
     <i name="EBREAK">      0.00000003</i>
     <i name="DEPER">      0.30000000</i>
     <i type="int" name="NRMM">     4</i>
     <i name="TIME">      0.40000000</i>
    </separator>
   </separator>
   <separator name="electronic mixer" >
    <i name="AMIX">      0.40000000</i>
    <i name="BMIX">      1.00000000</i>
    <i name="AMIN">      0.10000000</i>
    <i name="AMIX_MAG">      1.60000000</i>
    <i name="BMIX_MAG">      1.00000000</i>
    <separator name="electronic mixer details" >
     <i type="int" name="IMIX">     4</i>
     <i type="logical" name="MIXFIRST"> F  </i>
     <i type="int" name="MAXMIX">   -45</i>
     <i name="WC">    100.00000000</i>
     <i type="int" name="INIMIX">     1</i>
     <i type="int" name="MIXPRE">     1</i>
     <i type="int" name="MREMOVE">     5</i>
    </separator>
   </separator>
   <separator name="electronic dipolcorrection" >
    <i type="logical" name="LDIPOL"> F  </i>
    <i type="logical" name="LMONO"> F  </i>
    <i type="int" name="IDIPOL">     0</i>
    <i name="EPSILON">      1.00000000</i>
    <v name="DIPOL">   -100.00000000   -100.00000000   -100.00000000</v>
    <i name="EFIELD">      0.00000000</i>
   </separator>
  </separator>
  <separator name="grids" >
   <i type="int" name="NGX">    64</i>
   <i type="int" name="NGY">    64</i>
   <i type="int" name="NGZ">    90</i>
   <i type="int" name="NGXF">   128</i>
   <i type="int" name="NGYF">   128</i>
   <i type="int" name="NGZF">   180</i>
   <i type="logical" name="ADDGRID"> F  </i>
  </separator>
  <separator name="ionic" >
   <i type="int" name="NSW">    30</i>
   <i type="int" name="IBRION">     2</i>
   <i type="int" name="ISIF">     3</i>
   <i name="PSTRESS">      0.00000000</i>
   <i name="EDIFFG">     -0.03000000</i>
   <i type="int" name="NFREE">     1</i>
   <i name="POTIM">      0.50000000</i>
   <i name="SMASS">     -3.00000000</i>
   <i name="SCALEE">      1.00000000</i>
  </separator>
  <separator name="ionic md" >
   <i name="TEBEG">      0.00010000</i>
   <i name="TEEND">      0.00010000</i>
   <i type="int" name="NBLOCK">     1</i>
   <i type="int" name="KBLOCK">    30</i>
   <i type="int" name="NPACO">   256</i>
   <i name="APACO">     16.00000000</i>
  </separator>
  <separator name="symmetry" >
   <i type="int" name="ISYM">     2</i>
   <i name="SYMPREC">      0.00001000</i>
  </separator>
  <separator name="dos" >
   <i type="logical" name="LORBIT"> F  </i>
   <v name="RWIGS">     -1.00000000     -1.00000000     -1.00000000     -1.00000000</v>
   <i type="int" name="NEDOS">   301</i>
   <i name="EMIN">     10.00000000</i>
   <i name="EMAX">    -10.00000000</i>
   <i name="EFERMI">      0.00000000</i>
  </separator>
  <separator name="writing" >
   <i type="int" name="NWRITE">     2</i>
   <i type="logical" name="LWAVE"> T  </i>
   <i type="logical" name="LCHARG"> T  </i>
   <i type="logical" name="LPARD"> F  </i>
   <i type="logical" name="LVTOT"> F  </i>
   <i type="logical" name="LVHAR"> F  </i>
   <i type="logical" name="LELF"> F  </i>
   <i type="logical" name="LOPTICS"> F  </i>
   <v name="STM">      0.00000000      0.00000000      0.00000000      0.00000000      0.00000000      0.00000000      0.00000000</v>
  </separator>
  <separator name="performance" >
   <i type="int" name="NPAR">     2</i>
   <i type="int" name="NSIM">     4</i>
   <i type="int" name="NBLK">    -1</i>
   <i type="logical" name="LPLANE"> T  </i>
   <i type="logical" name="LSCALAPACK"> T  </i>
   <i type="logical" name="LSCAAWARE"> F  </i>
   <i type="logical" name="LSCALU"> F  </i>
   <i type="logical" name="LASYNC"> F  </i>
   <i type="logical" name="LORBITALREAL"> F  </i>
  </separator>
  <separator name="miscellaneous" >
   <i type="int" name="IDIOT">     3</i>
   <i type="logical" name="LMUSIC"> F  </i>
   <v name="POMASS">     87.62000000     47.88000000     55.84700000     16.00000000</v>
   <v name="DARWINR">      0.00000000      0.00000000      0.00000000      0.00000000</v>
   <v name="DARWINV">      1.00000000      1.00000000      1.00000000      1.00000000</v>
   <i type="logical" name="LCORR"> T  </i>
  </separator>
  <i type="logical" name="GGA_COMPAT"> T  </i>
  <i type="logical" name="LBERRY"> F  </i>
  <i type="int" name="ICORELEVEL">     0</i>
  <i type="logical" name="LDAU"> T  </i>
  <v type="int" name="LDAUTYPE">     2</v>
  <v type="int" name="LDAUL">     0</v>
  <v name="LDAUU">      0.00000000</v>
  <v name="LDAUJ">      0.00000000</v>
  <i type="int" name="LDAUPRINT">     1</i>
  <i type="int" name="I_CONSTRAINED_M">     0</i>
  <separator name="electronic exchange-correlation" >
   <i type="string" name="GGA">--</i>
   <i type="int" name="VOSKOWN">     0</i>
   <i type="logical" name="LHFCALC"> F  </i>
   <i type="string" name="PRECFOCK"></i>
   <i type="logical" name="LSYMGRAD"> F  </i>
   <i type="logical" name="LHFONE"> F  </i>
   <i type="logical" name="LRHFCALC"> F  </i>
   <i type="logical" name="LTHOMAS"> F  </i>
   <i type="logical" name="LMODELHF"> F  </i>
   <i name="ENCUT4O">     -1.00000000</i>
   <i type="int" name="EXXOEP">     0</i>
   <i type="int" name="FOURORBIT">     0</i>
   <i name="AEXX">      0.00000000</i>
   <i name="HFALPHA">      0.00000000</i>
   <i name="MCALPHA">      0.00000000</i>
   <i name="ALDAX">      1.00000000</i>
   <i name="AGGAX">      1.00000000</i>
   <i name="ALDAC">      1.00000000</i>
   <i name="AGGAC">      1.00000000</i>
   <i type="int" name="NKREDX">     1</i>
   <i type="int" name="NKREDY">     1</i>
   <i type="int" name="NKREDZ">     1</i>
   <i type="logical" name="SHIFTRED"> F  </i>
   <i type="logical" name="ODDONLY"> F  </i>
   <i type="logical" name="EVENONLY"> F  </i>
   <i type="int" name="LMAXFOCK">     0</i>
   <i type="int" name="NMAXFOCKAE">     0</i>
   <i type="logical" name="LFOCKAEDFT"> F  </i>
   <i name="HFSCREEN">      0.00000000</i>
   <i name="HFSCREENC">      0.00000000</i>
   <i type="int" name="NBANDSGWLOW">     0</i>
  </separator>
  <separator name="vdW DFT" >
   <i type="logical" name="LUSE_VDW"> F  </i>
   <i name="Zab_VDW">     -0.84910000</i>
   <i name="PARAM1">      0.12340000</i>
   <i name="PARAM2">      1.00000000</i>
   <i name="PARAM3">      0.00000000</i>
  </separator>
  <separator name="model GW" >
   <i type="int" name="MODEL_GW">     0</i>
   <i name="MODEL_EPS0">      7.61221335</i>
   <i name="MODEL_ALPHA">      1.00000000</i>
  </separator>
  <separator name="linear response parameters" >
   <i type="logical" name="LEPSILON"> F  </i>
   <i type="logical" name="LRPA"> F  </i>
   <i type="logical" name="LNABLA"> F  </i>
   <i type="logical" name="LVEL"> F  </i>
   <i type="int" name="KINTER">     0</i>
   <i name="CSHIFT">      0.10000000</i>
   <i name="OMEGAMAX">     -1.00000000</i>
   <i name="DEG_THRESHOLD">      0.00200000</i>
  </separator>
  <separator name="orbital magnetization" >
   <i type="logical" name="NUCIND"> F  </i>
   <v name="MAGPOS">      0.00000000      0.00000000      0.00000000</v>
   <i type="logical" name="LNICSALL"> T  </i>
   <i type="logical" name="ORBITALMAG"> F  </i>
   <i type="logical" name="LMAGBLOCH"> F  </i>
   <i type="logical" name="LCHIMAG"> F  </i>
   <i type="logical" name="LGAUGE"> T  </i>
   <i type="int" name="MAGATOM">     0</i>
   <v name="MAGDIPOL">      0.00000000      0.00000000      0.00000000</v>
   <v name="AVECCONST">      0.00000000      0.00000000      0.00000000</v>
  </separator>
  <separator name="response functions" >
   <i type="logical" name="LADDER"> F  </i>
   <i type="logical" name="LFXC"> F  </i>
   <i type="logical" name="LHARTREE"> T  </i>
   <i type="int" name="IBSE">     0</i>
   <v type="int" name="KPOINT">    -1     0     0     0</v>
   <i type="logical" name="LTCTE"> F  </i>
   <i type="logical" name="LTETE"> F  </i>
   <i type="logical" name="LTRIPLET"> F  </i>
   <i type="logical" name="LFXCEPS"> F  </i>
   <i type="logical" name="LFXHEG"> F  </i>
   <i type="int" name="NATURALO">     0</i>
   <i type="logical" name="L2ORDER"> F  </i>
   <i type="logical" name="LUSEW"> F  </i>
   <i name="ENCUTGW">     -2.00000000</i>
   <i name="ENCUTGWSOFT">     -2.00000000</i>
   <i name="ENCUTLF">     -1.00000000</i>
   <i type="int" name="LMAXMP2">    -1</i>
   <i name="SCISSOR">      0.00000000</i>
   <i type="int" name="NOMEGA">     0</i>
   <i type="int" name="NOMEGAR">     0</i>
   <i type="int" name="NBANDSGW">    -1</i>
   <i type="int" name="NBANDSO">    -1</i>
   <i type="int" name="NBANDSV">    -1</i>
   <i type="int" name="NELM">    40</i>
   <i type="int" name="NELMHF">     1</i>
   <i type="int" name="DIM">     3</i>
   <i type="int" name="ANTIRES">     0</i>
   <i name="OMEGAMAX">    -30.00000000</i>
   <i name="OMEGAMIN">    -30.00000000</i>
   <i name="OMEGATL">   -200.00000000</i>
   <i type="int" name="OMEGAGRID">     0</i>
   <i name="CSHIFT">     -0.10000000</i>
   <i type="logical" name="SELFENERGY"> F  </i>
   <i type="logical" name="LSPECTRAL"> F  </i>
   <i type="logical" name="LSPECTRALGW"> F  </i>
   <i type="logical" name="LSINGLES"> F  </i>
   <i type="logical" name="LFERMIGW"> F  </i>
   <i type="logical" name="ODDONLYGW"> F  </i>
   <i type="logical" name="EVENONLYGW"> F  </i>
   <i type="int" name="NKREDLFX">     1</i>
   <i type="int" name="NKREDLFY">     1</i>
   <i type="int" name="NKREDLFZ">     1</i>
   <i type="int" name="MAXMEM">  1800</i>
   <i type="int" name="TELESCOPE">     0</i>
   <i type="int" name="TAUPAR">     1</i>
   <i type="int" name="OMEGAPAR">    -1</i>
   <i name="LAMBDA">      1.00000000</i>
  </separator>
  <separator name="External order field" >
   <i name="OFIELD_KAPPA">      0.00000000</i>
   <v name="OFIELD_K">      0.00000000      0.00000000      0.00000000</v>
   <i name="OFIELD_Q6_NEAR">      0.00000000</i>
   <i name="OFIELD_Q6_FAR">      0.00000000</i>
   <i name="OFIELD_A">      0.00000000</i>
  </separator>
 </parameters>
 <atominfo>
  <atoms>     158 </atoms>
  <types>       4 </types>
  <array name="atoms" >
   <dimension dim="1">ion</dimension>
   <field type="string">element</field>
   <field type="int">atomtype</field>
   <set>
    <rc><c>Sr</c><c>   1</c></rc>
    <rc><c>Sr</c><c>   1</c></rc>
    <rc><c>Sr</c><c>   1</c></rc>
    <rc><c>Sr</c><c>   1</c></rc>
    <rc><c>Sr</c><c>   1</c></rc>
    <rc><c>Sr</c><c>   1</c></rc>
    <rc><c>Sr</c><c>   1</c></rc>
    <rc><c>Sr</c><c>   1</c></rc>
    <rc><c>Sr</c><c>   1</c></rc>
    <rc><c>Sr</c><c>   1</c></rc>
    <rc><c>Sr</c><c>   1</c></rc>
    <rc><c>Sr</c><c>   1</c></rc>
    <rc><c>Sr</c><c>   1</c></rc>
    <rc><c>Sr</c><c>   1</c></rc>
    <rc><c>Sr</c><c>   1</c></rc>
    <rc><c>Sr</c><c>   1</c></rc>
    <rc><c>Sr</c><c>   1</c></rc>
    <rc><c>Sr</c><c>   1</c></rc>
    <rc><c>Sr</c><c>   1</c></rc>
    <rc><c>Sr</c><c>   1</c></rc>
    <rc><c>Sr</c><c>   1</c></rc>
    <rc><c>Sr</c><c>   1</c></rc>
    <rc><c>Sr</c><c>   1</c></rc>
    <rc><c>Sr</c><c>   1</c></rc>
    <rc><c>Sr</c><c>   1</c></rc>
    <rc><c>Sr</c><c>   1</c></rc>
    <rc><c>Sr</c><c>   1</c></rc>
    <rc><c>Sr</c><c>   1</c></rc>
    <rc><c>Sr</c><c>   1</c></rc>
    <rc><c>Sr</c><c>   1</c></rc>
    <rc><c>Sr</c><c>   1</c></rc>
    <rc><c>Sr</c><c>   1</c></rc>
    <rc><c>Ti</c><c>   2</c></rc>
    <rc><c>Ti</c><c>   2</c></rc>
    <rc><c>Ti</c><c>   2</c></rc>
    <rc><c>Ti</c><c>   2</c></rc>
    <rc><c>Ti</c><c>   2</c></rc>
    <rc><c>Ti</c><c>   2</c></rc>
    <rc><c>Ti</c><c>   2</c></rc>
    <rc><c>Ti</c><c>   2</c></rc>
    <rc><c>Ti</c><c>   2</c></rc>
    <rc><c>Ti</c><c>   2</c></rc>
    <rc><c>Ti</c><c>   2</c></rc>
    <rc><c>Ti</c><c>   2</c></rc>
    <rc><c>Ti</c><c>   2</c></rc>
    <rc><c>Ti</c><c>   2</c></rc>
    <rc><c>Ti</c><c>   2</c></rc>
    <rc><c>Ti</c><c>   2</c></rc>
    <rc><c>Ti</c><c>   2</c></rc>
    <rc><c>Ti</c><c>   2</c></rc>
    <rc><c>Ti</c><c>   2</c></rc>
    <rc><c>Ti</c><c>   2</c></rc>
    <rc><c>Ti</c><c>   2</c></rc>
    <rc><c>Ti</c><c>   2</c></rc>
    <rc><c>Ti</c><c>   2</c></rc>
    <rc><c>Ti</c><c>   2</c></rc>
    <rc><c>Ti</c><c>   2</c></rc>
    <rc><c>Ti</c><c>   2</c></rc>
    <rc><c>Ti</c><c>   2</c></rc>
    <rc><c>Ti</c><c>   2</c></rc>
    <rc><c>Fe</c><c>   3</c></rc>
    <rc><c>Fe</c><c>   3</c></rc>
    <rc><c>Fe</c><c>   3</c></rc>
    <rc><c>Fe</c><c>   3</c></rc>
    <rc><c>O </c><c>   4</c></rc>
    <rc><c>O </c><c>   4</c></rc>
    <rc><c>O </c><c>   4</c></rc>
    <rc><c>O </c><c>   4</c></rc>
    <rc><c>O </c><c>   4</c></rc>
    <rc><c>O </c><c>   4</c></rc>
    <rc><c>O </c><c>   4</c></rc>
    <rc><c>O </c><c>   4</c></rc>
    <rc><c>O </c><c>   4</c></rc>
    <rc><c>O </c><c>   4</c></rc>
    <rc><c>O </c><c>   4</c></rc>
    <rc><c>O </c><c>   4</c></rc>
    <rc><c>O </c><c>   4</c></rc>
    <rc><c>O </c><c>   4</c></rc>
    <rc><c>O </c><c>   4</c></rc>
    <rc><c>O </c><c>   4</c></rc>
    <rc><c>O </c><c>   4</c></rc>
    <rc><c>O </c><c>   4</c></rc>
    <rc><c>O </c><c>   4</c></rc>
    <rc><c>O </c><c>   4</c></rc>
    <rc><c>O </c><c>   4</c></rc>
    <rc><c>O </c><c>   4</c></rc>
    <rc><c>O </c><c>   4</c></rc>
    <rc><c>O </c><c>   4</c></rc>
    <rc><c>O </c><c>   4</c></rc>
    <rc><c>O </c><c>   4</c></rc>
    <rc><c>O </c><c>   4</c></rc>
    <rc><c>O </c><c>   4</c></rc>
    <rc><c>O </c><c>   4</c></rc>
    <rc><c>O </c><c>   4</c></rc>
    <rc><c>O </c><c>   4</c></rc>
    <rc><c>O </c><c>   4</c></rc>
    <rc><c>O </c><c>   4</c></rc>
    <rc><c>O </c><c>   4</c></rc>
    <rc><c>O </c><c>   4</c></rc>
    <rc><c>O </c><c>   4</c></rc>
    <rc><c>O </c><c>   4</c></rc>
    <rc><c>O </c><c>   4</c></rc>
    <rc><c>O </c><c>   4</c></rc>
    <rc><c>O </c><c>   4</c></rc>
    <rc><c>O </c><c>   4</c></rc>
    <rc><c>O </c><c>   4</c></rc>
    <rc><c>O </c><c>   4</c></rc>
    <rc><c>O </c><c>   4</c></rc>
    <rc><c>O </c><c>   4</c></rc>
    <rc><c>O </c><c>   4</c></rc>
    <rc><c>O </c><c>   4</c></rc>
    <rc><c>O </c><c>   4</c></rc>
    <rc><c>O </c><c>   4</c></rc>
    <rc><c>O </c><c>   4</c></rc>
    <rc><c>O </c><c>   4</c></rc>
    <rc><c>O </c><c>   4</c></rc>
    <rc><c>O </c><c>   4</c></rc>
    <rc><c>O </c><c>   4</c></rc>
    <rc><c>O </c><c>   4</c></rc>
    <rc><c>O </c><c>   4</c></rc>
    <rc><c>O </c><c>   4</c></rc>
    <rc><c>O </c><c>   4</c></rc>
    <rc><c>O </c><c>   4</c></rc>
    <rc><c>O </c><c>   4</c></rc>
    <rc><c>O </c><c>   4</c></rc>
    <rc><c>O </c><c>   4</c></rc>
    <rc><c>O </c><c>   4</c></rc>
    <rc><c>O </c><c>   4</c></rc>
    <rc><c>O </c><c>   4</c></rc>
    <rc><c>O </c><c>   4</c></rc>
    <rc><c>O </c><c>   4</c></rc>
    <rc><c>O </c><c>   4</c></rc>
    <rc><c>O </c><c>   4</c></rc>
    <rc><c>O </c><c>   4</c></rc>
    <rc><c>O </c><c>   4</c></rc>
    <rc><c>O </c><c>   4</c></rc>
    <rc><c>O </c><c>   4</c></rc>
    <rc><c>O </c><c>   4</c></rc>
    <rc><c>O </c><c>   4</c></rc>
    <rc><c>O </c><c>   4</c></rc>
    <rc><c>O </c><c>   4</c></rc>
    <rc><c>O </c><c>   4</c></rc>
    <rc><c>O </c><c>   4</c></rc>
    <rc><c>O </c><c>   4</c></rc>
    <rc><c>O </c><c>   4</c></rc>
    <rc><c>O </c><c>   4</c></rc>
    <rc><c>O </c><c>   4</c></rc>
    <rc><c>O </c><c>   4</c></rc>
    <rc><c>O </c><c>   4</c></rc>
    <rc><c>O </c><c>   4</c></rc>
    <rc><c>O </c><c>   4</c></rc>
    <rc><c>O </c><c>   4</c></rc>
    <rc><c>O </c><c>   4</c></rc>
    <rc><c>O </c><c>   4</c></rc>
    <rc><c>O </c><c>   4</c></rc>
    <rc><c>O </c><c>   4</c></rc>
    <rc><c>O </c><c>   4</c></rc>
    <rc><c>O </c><c>   4</c></rc>
   </set>
  </array>
  <array name="atomtypes" >
   <dimension dim="1">type</dimension>
   <field type="int">atomspertype</field>
   <field type="string">element</field>
   <field>mass</field>
   <field>valence</field>
   <field type="string">pseudopotential</field>
   <set>
    <rc><c>  32</c><c>Sr</c><c>     87.62000000</c><c>     10.00000000</c><c>  PAW_PBE Sr_sv 07Sep2000               </c></rc>
    <rc><c>  28</c><c>Ti</c><c>     47.88000000</c><c>      4.00000000</c><c>  PAW_PBE Ti 08Apr2002                  </c></rc>
    <rc><c>   4</c><c>Fe</c><c>     55.84700000</c><c>      8.00000000</c><c>  PAW_PBE Fe 06Sep2000                  </c></rc>
    <rc><c>  94</c><c>O </c><c>     16.00000000</c><c>      6.00000000</c><c>  PAW_PBE O 08Apr2002                   </c></rc>
   </set>
  </array>
 </atominfo>
 <structure name="initialpos" >
  <crystal>
   <varray name="basis" >
    <v>      11.19900000       0.00000000       0.00000000 </v>
    <v>       0.00000000      11.19900000       0.00000000 </v>
    <v>       0.00000000       0.00000000      15.98300000 </v>
   </varray>
   <i name="volume">   2004.54951678 </i>
   <varray name="rec_basis" >
    <v>       0.08929369       0.00000000       0.00000000 </v>
    <v>       0.00000000       0.08929369       0.00000000 </v>
    <v>       0.00000000       0.00000000       0.06256648 </v>
   </varray>
  </crystal>
  <varray name="positions" >
   <v>       0.00000000       0.25000000       0.12500000 </v>
   <v>       0.00000000       0.25000000       0.62500000 </v>
   <v>       0.00000000       0.75000000       0.12500000 </v>
   <v>       0.00000000       0.75000000       0.62500000 </v>
   <v>       0.50000000       0.25000000       0.12500000 </v>
   <v>       0.50000000       0.25000000       0.62500000 </v>
   <v>       0.50000000       0.75000000       0.12500000 </v>
   <v>       0.50000000       0.75000000       0.62500000 </v>
   <v>       0.00000000       0.25000000       0.37500000 </v>
   <v>       0.00000000       0.25000000       0.87500000 </v>
   <v>       0.00000000       0.75000000       0.37500000 </v>
   <v>       0.00000000       0.75000000       0.87500000 </v>
   <v>       0.50000000       0.25000000       0.37500000 </v>
   <v>       0.50000000       0.25000000       0.87500000 </v>
   <v>       0.50000000       0.75000000       0.37500000 </v>
   <v>       0.50000000       0.75000000       0.87500000 </v>
   <v>       0.25000000       0.00000000       0.12500000 </v>
   <v>       0.25000000       0.00000000       0.62500000 </v>
   <v>       0.25000000       0.50000000       0.12500000 </v>
   <v>       0.25000000       0.50000000       0.62500000 </v>
   <v>       0.75000000       0.00000000       0.12500000 </v>
   <v>       0.75000000       0.00000000       0.62500000 </v>
   <v>       0.75000000       0.50000000       0.12500000 </v>
   <v>       0.75000000       0.50000000       0.62500000 </v>
   <v>       0.25000000       0.00000000       0.37500000 </v>
   <v>       0.25000000       0.00000000       0.87500000 </v>
   <v>       0.25000000       0.50000000       0.37500000 </v>
   <v>       0.25000000       0.50000000       0.87500000 </v>
   <v>       0.75000000       0.00000000       0.37500000 </v>
   <v>       0.75000000       0.00000000       0.87500000 </v>
   <v>       0.75000000       0.50000000       0.37500000 </v>
   <v>       0.75000000       0.50000000       0.87500000 </v>
   <v>       0.00000000       0.00000000       0.50000000 </v>
   <v>       0.00000000       0.50000000       0.00000000 </v>
   <v>       0.00000000       0.50000000       0.50000000 </v>
   <v>       0.50000000       0.00000000       0.00000000 </v>
   <v>       0.50000000       0.00000000       0.50000000 </v>
   <v>       0.50000000       0.50000000       0.00000000 </v>
   <v>       0.25000000       0.25000000       0.00000000 </v>
   <v>       0.25000000       0.25000000       0.50000000 </v>
   <v>       0.25000000       0.75000000       0.00000000 </v>
   <v>       0.25000000       0.75000000       0.50000000 </v>
   <v>       0.75000000       0.25000000       0.00000000 </v>
   <v>       0.75000000       0.25000000       0.50000000 </v>
   <v>       0.75000000       0.75000000       0.00000000 </v>
   <v>       0.75000000       0.75000000       0.50000000 </v>
   <v>       0.25000000       0.25000000       0.25000000 </v>
   <v>       0.25000000       0.25000000       0.75000000 </v>
   <v>       0.25000000       0.75000000       0.25000000 </v>
   <v>       0.25000000       0.75000000       0.75000000 </v>
   <v>       0.75000000       0.25000000       0.25000000 </v>
   <v>       0.75000000       0.25000000       0.75000000 </v>
   <v>       0.75000000       0.75000000       0.25000000 </v>
   <v>       0.75000000       0.75000000       0.75000000 </v>
   <v>       0.00000000       0.00000000       0.75000000 </v>
   <v>       0.00000000       0.50000000       0.25000000 </v>
   <v>       0.00000000       0.50000000       0.75000000 </v>
   <v>       0.50000000       0.00000000       0.25000000 </v>
   <v>       0.50000000       0.00000000       0.75000000 </v>
   <v>       0.50000000       0.50000000       0.25000000 </v>
   <v>       0.00000000       0.00000000       0.00000000 </v>
   <v>       0.00000000       0.00000000       0.25000000 </v>
   <v>       0.50000000       0.50000000       0.75000000 </v>
   <v>       0.50000000       0.50000000       0.50000000 </v>
   <v>       0.00000000       0.00000000       0.62500000 </v>
   <v>       0.00000000       0.50000000       0.12500000 </v>
   <v>       0.00000000       0.50000000       0.62500000 </v>
   <v>       0.50000000       0.00000000       0.12500000 </v>
   <v>       0.50000000       0.00000000       0.62500000 </v>
   <v>       0.50000000       0.50000000       0.12500000 </v>
   <v>       0.00000000       0.00000000       0.37500000 </v>
   <v>       0.00000000       0.00000000       0.87500000 </v>
   <v>       0.00000000       0.50000000       0.37500000 </v>
   <v>       0.00000000       0.50000000       0.87500000 </v>
   <v>       0.50000000       0.00000000       0.37500000 </v>
   <v>       0.50000000       0.00000000       0.87500000 </v>
   <v>       0.50000000       0.50000000       0.37500000 </v>
   <v>       0.50000000       0.50000000       0.87500000 </v>
   <v>       0.25000000       0.25000000       0.37500000 </v>
   <v>       0.25000000       0.25000000       0.87500000 </v>
   <v>       0.25000000       0.75000000       0.37500000 </v>
   <v>       0.25000000       0.75000000       0.87500000 </v>
   <v>       0.75000000       0.25000000       0.37500000 </v>
   <v>       0.75000000       0.25000000       0.87500000 </v>
   <v>       0.75000000       0.75000000       0.37500000 </v>
   <v>       0.75000000       0.75000000       0.87500000 </v>
   <v>       0.25000000       0.25000000       0.12500000 </v>
   <v>       0.25000000       0.25000000       0.62500000 </v>
   <v>       0.25000000       0.75000000       0.12500000 </v>
   <v>       0.25000000       0.75000000       0.62500000 </v>
   <v>       0.75000000       0.25000000       0.12500000 </v>
   <v>       0.75000000       0.25000000       0.62500000 </v>
   <v>       0.75000000       0.75000000       0.12500000 </v>
   <v>       0.75000000       0.75000000       0.62500000 </v>
   <v>       0.10900000       0.14100000       0.25000000 </v>
   <v>       0.35900000       0.10900000       0.25000000 </v>
   <v>       0.60900000       0.14100000       0.25000000 </v>
   <v>       0.85900000       0.10900000       0.25000000 </v>
   <v>       0.14100000       0.39100000       0.25000000 </v>
   <v>       0.39100000       0.35900000       0.25000000 </v>
   <v>       0.64100000       0.39100000       0.25000000 </v>
   <v>       0.89100000       0.35900000       0.25000000 </v>
   <v>       0.10900000       0.64100000       0.25000000 </v>
   <v>       0.35900000       0.60900000       0.25000000 </v>
   <v>       0.60900000       0.64100000       0.25000000 </v>
   <v>       0.85900000       0.60900000       0.25000000 </v>
   <v>       0.14100000       0.89100000       0.25000000 </v>
   <v>       0.39100000       0.85900000       0.25000000 </v>
   <v>       0.64100000       0.89100000       0.25000000 </v>
   <v>       0.89100000       0.85900000       0.25000000 </v>
   <v>       0.14100000       0.10900000       0.50000000 </v>
   <v>       0.39100000       0.14100000       0.50000000 </v>
   <v>       0.64100000       0.10900000       0.50000000 </v>
   <v>       0.89100000       0.14100000       0.50000000 </v>
   <v>       0.10900000       0.35900000       0.50000000 </v>
   <v>       0.35900000       0.39100000       0.50000000 </v>
   <v>       0.60900000       0.35900000       0.50000000 </v>
   <v>       0.85900000       0.39100000       0.50000000 </v>
   <v>       0.14100000       0.60900000       0.50000000 </v>
   <v>       0.39100000       0.64100000       0.50000000 </v>
   <v>       0.64100000       0.60900000       0.50000000 </v>
   <v>       0.89100000       0.64100000       0.50000000 </v>
   <v>       0.10900000       0.85900000       0.50000000 </v>
   <v>       0.35900000       0.89100000       0.50000000 </v>
   <v>       0.60900000       0.85900000       0.50000000 </v>
   <v>       0.85900000       0.89100000       0.50000000 </v>
   <v>       0.10900000       0.14100000       0.75000000 </v>
   <v>       0.35900000       0.10900000       0.75000000 </v>
   <v>       0.60900000       0.14100000       0.75000000 </v>
   <v>       0.85900000       0.10900000       0.75000000 </v>
   <v>       0.14100000       0.39100000       0.75000000 </v>
   <v>       0.39100000       0.35900000       0.75000000 </v>
   <v>       0.64100000       0.39100000       0.75000000 </v>
   <v>       0.89100000       0.35900000       0.75000000 </v>
   <v>       0.10900000       0.64100000       0.75000000 </v>
   <v>       0.35900000       0.60900000       0.75000000 </v>
   <v>       0.60900000       0.64100000       0.75000000 </v>
   <v>       0.85900000       0.60900000       0.75000000 </v>
   <v>       0.14100000       0.89100000       0.75000000 </v>
   <v>       0.39100000       0.85900000       0.75000000 </v>
   <v>       0.64100000       0.89100000       0.75000000 </v>
   <v>       0.89100000       0.85900000       0.75000000 </v>
   <v>       0.14100000       0.10900000       0.00000000 </v>
   <v>       0.39100000       0.14100000       0.00000000 </v>
   <v>       0.64100000       0.10900000       0.00000000 </v>
   <v>       0.89100000       0.14100000       0.00000000 </v>
   <v>       0.10900000       0.35900000       0.00000000 </v>
   <v>       0.35900000       0.39100000       0.00000000 </v>
   <v>       0.60900000       0.35900000       0.00000000 </v>
   <v>       0.85900000       0.39100000       0.00000000 </v>
   <v>       0.14100000       0.60900000       0.00000000 </v>
   <v>       0.39100000       0.64100000       0.00000000 </v>
   <v>       0.64100000       0.60900000       0.00000000 </v>
   <v>       0.89100000       0.64100000       0.00000000 </v>
   <v>       0.10900000       0.85900000       0.00000000 </v>
   <v>       0.35900000       0.89100000       0.00000000 </v>
   <v>       0.60900000       0.85900000       0.00000000 </v>
   <v>       0.85900000       0.89100000       0.00000000 </v>
  </varray>
 </structure>
 <calculation>
  <scstep>
   <time name="dav">   70.51   70.54</time>
   <time name="total">   71.10   71.13</time>
   <energy>
    <i name="alphaZ">   5635.31984428 </i>
    <i name="ewald"> -61350.70021222 </i>
    <i name="hartreedc"> -14032.12307961 </i>
    <i name="XCdc">   2738.00619376 </i>
    <i name="pawpsdc">  58487.96789684 </i>
    <i name="pawaedc"> -57024.96744451 </i>
    <i name="eentropy">     -0.06803998 </i>
    <i name="bandstr">   5111.32085867 </i>
    <i name="atom">  72650.08363186 </i>
    <i name="e_fr_energy">  12214.83964910 </i>
    <i name="e_wo_entrp">  12214.90768907 </i>
    <i name="e_0_energy">  12214.87366909 </i>
   </energy>
  </scstep>
  <scstep>
   <time name="dav">   70.69   70.77</time>
   <time name="total">   70.70   70.79</time>
   <energy>
    <i name="e_fr_energy">    755.09884817 </i>
    <i name="e_wo_entrp">    755.09905291 </i>
    <i name="e_0_energy">    755.09895054 </i>
   </energy>
  </scstep>
  <scstep>
   <time name="dav">   75.34   75.36</time>
   <time name="total">   75.35   75.40</time>
   <energy>
    <i name="e_fr_energy">  -1337.88886628 </i>
    <i name="e_wo_entrp">  -1337.88886628 </i>
    <i name="e_0_energy">  -1337.88886628 </i>
   </energy>
  </scstep>
  <scstep>
   <time name="dav">   88.99   89.08</time>
   <time name="total">   88.99   89.09</time>
   <energy>
    <i name="e_fr_energy">  -1489.46963422 </i>
    <i name="e_wo_entrp">  -1489.46963422 </i>
    <i name="e_0_energy">  -1489.46963422 </i>
   </energy>
  </scstep>
  <scstep>
   <time name="dav">  117.50  117.52</time>
   <time name="total">  118.66  118.74</time>
   <energy>
    <i name="e_fr_energy">  -1499.64007488 </i>
    <i name="e_wo_entrp">  -1499.64007488 </i>
    <i name="e_0_energy">  -1499.64007488 </i>
   </energy>
  </scstep>
  <scstep>
   <time name="diag">    8.26    8.26</time>
   <time name="diis">   13.20   13.20</time>
   <time name="orth">    4.73    4.73</time>
   <time name="total">   27.94   27.99</time>
   <energy>
    <i name="e_fr_energy">  -1160.63285178 </i>
    <i name="e_wo_entrp">  -1160.63285178 </i>
    <i name="e_0_energy">  -1160.63285178 </i>
   </energy>
  </scstep>
  <scstep>
   <time name="diag">    8.29    8.29</time>
   <time name="diis">   13.38   13.38</time>
   <time name="orth">    4.74    4.74</time>
   <time name="total">   28.15   28.16</time>
   <energy>
    <i name="e_fr_energy">  -1140.54857169 </i>
    <i name="e_wo_entrp">  -1140.54857169 </i>
    <i name="e_0_energy">  -1140.54857169 </i>
   </energy>
  </scstep>
  <scstep>
   <time name="diag">    8.29    8.29</time>
   <time name="diis">   14.52   14.52</time>
   <time name="orth">    4.73    4.73</time>
   <time name="total">   29.27   29.32</time>
   <energy>
    <i name="e_fr_energy">  -1142.89260999 </i>
    <i name="e_wo_entrp">  -1142.89260999 </i>
    <i name="e_0_energy">  -1142.89260999 </i>
   </energy>
  </scstep>
  <scstep>
   <time name="diag">    8.27    8.27</time>
   <time name="diis">   13.29   13.29</time>
   <time name="orth">    4.73    4.73</time>
   <time name="total">   28.03   28.04</time>
   <energy>
    <i name="e_fr_energy">  -1147.71741983 </i>
    <i name="e_wo_entrp">  -1147.71741983 </i>
    <i name="e_0_energy">  -1147.71741983 </i>
   </energy>
  </scstep>
  <scstep>
   <time name="diag">    8.24    8.25</time>
   <time name="diis">   14.32   14.32</time>
   <time name="orth">    4.74    4.74</time>
   <time name="total">   29.04   29.08</time>
   <energy>
    <i name="e_fr_energy">  -1148.63804108 </i>
    <i name="e_wo_entrp">  -1148.63804108 </i>
    <i name="e_0_energy">  -1148.63804108 </i>
   </energy>
  </scstep>
  <scstep>
   <time name="diag">    8.25    8.25</time>
   <time name="diis">   14.98   14.98</time>
   <time name="orth">    4.73    4.73</time>
   <time name="total">   29.70   29.75</time>
   <energy>
    <i name="e_fr_energy">  -1149.83332421 </i>
    <i name="e_wo_entrp">  -1149.83332421 </i>
    <i name="e_0_energy">  -1149.83332421 </i>
   </energy>
  </scstep>
  <scstep>
   <time name="diag">    8.26    8.26</time>
   <time name="diis">   14.58   14.59</time>
   <time name="orth">    4.70    4.70</time>
   <time name="total">   29.29   29.33</time>
   <energy>
    <i name="e_fr_energy">  -1150.57976502 </i>
    <i name="e_wo_entrp">  -1150.57976502 </i>
    <i name="e_0_energy">  -1150.57976502 </i>
   </energy>
  </scstep>
  <scstep>
   <time name="diag">    8.25    8.26</time>
   <time name="diis">   15.34   15.34</time>
   <time name="orth">    4.73    4.73</time>
   <time name="total">   30.06   30.10</time>
   <energy>
    <i name="e_fr_energy">  -1150.83586499 </i>
    <i name="e_wo_entrp">  -1150.83586499 </i>
    <i name="e_0_energy">  -1150.83586499 </i>
   </energy>
  </scstep>
  <scstep>
   <time name="diag">    8.24    8.25</time>
   <time name="diis">   15.07   15.08</time>
   <time name="orth">    4.71    4.71</time>
   <time name="total">   29.75   29.82</time>
   <energy>
    <i name="e_fr_energy">  -1150.89942573 </i>
    <i name="e_wo_entrp">  -1150.89942573 </i>
    <i name="e_0_energy">  -1150.89942573 </i>
   </energy>
  </scstep>
  <scstep>
   <time name="diag">    8.25    8.25</time>
   <time name="diis">   15.48   15.48</time>
   <time name="orth">    4.72    4.72</time>
   <time name="total">   30.19   30.20</time>
   <energy>
    <i name="e_fr_energy">  -1150.91095986 </i>
    <i name="e_wo_entrp">  -1150.91095986 </i>
    <i name="e_0_energy">  -1150.91095986 </i>
   </energy>
  </scstep>
  <scstep>
   <time name="diag">    8.26    8.26</time>
   <time name="diis">   16.85   16.87</time>
   <time name="orth">    4.72    4.72</time>
   <time name="total">   31.57   31.66</time>
   <energy>
    <i name="e_fr_energy">  -1150.91485645 </i>
    <i name="e_wo_entrp">  -1150.91485645 </i>
    <i name="e_0_energy">  -1150.91485645 </i>
   </energy>
  </scstep>
  <scstep>
   <time name="diag">    8.25    8.25</time>
   <time name="diis">   14.26   14.26</time>
   <time name="orth">    4.72    4.72</time>
   <time name="total">   28.97   29.03</time>
   <energy>
    <i name="e_fr_energy">  -1150.91457124 </i>
    <i name="e_wo_entrp">  -1150.91457124 </i>
    <i name="e_0_energy">  -1150.91457124 </i>
   </energy>
  </scstep>
  <scstep>
   <time name="diag">    8.24    8.25</time>
   <time name="diis">   13.96   13.97</time>
   <time name="orth">    4.72    4.72</time>
   <time name="total">   28.67   28.69</time>
   <energy>
    <i name="e_fr_energy">  -1150.91479029 </i>
    <i name="e_wo_entrp">  -1150.91479029 </i>
    <i name="e_0_energy">  -1150.91479029 </i>
   </energy>
  </scstep>
  <scstep>
   <time name="diag">    8.26    8.26</time>
   <time name="diis">   11.00   11.00</time>
   <time name="orth">    4.72    4.72</time>
   <time name="total">   25.73   25.75</time>
   <energy>
    <i name="e_fr_energy">  -1150.91490009 </i>
    <i name="e_wo_entrp">  -1150.91490009 </i>
    <i name="e_0_energy">  -1150.91490009 </i>
   </energy>
  </scstep>
  <scstep>
   <time name="diag">    8.25    8.26</time>
   <time name="diis">   10.71   10.72</time>
   <time name="orth">    4.72    4.71</time>
   <time name="total">   24.25   24.31</time>
   <energy>
    <i name="alphaZ">   5635.31984428 </i>
    <i name="ewald"> -61350.70021222 </i>
    <i name="hartreedc"> -15156.46881611 </i>
    <i name="XCdc">   2850.67833588 </i>
    <i name="pawpsdc"> 111048.01405931 </i>
    <i name="pawaedc">-109795.98691093 </i>
    <i name="eentropy">     -0.00000000 </i>
    <i name="bandstr">  -7031.85490156 </i>
    <i name="atom">  72650.08363186 </i>
    <i name="e_fr_energy">  -1150.91496949 </i>
    <i name="e_wo_entrp">  -1150.91496949 </i>
    <i name="e_0_energy">  -1150.91496949 </i>
   </energy>
  </scstep>
  <structure>
   <crystal>
    <varray name="basis" >
     <v>      11.19900000       0.00000000       0.00000000 </v>
     <v>       0.00000000      11.19900000       0.00000000 </v>
     <v>       0.00000000       0.00000000      15.98300000 </v>
    </varray>
    <i name="volume">   2004.54951678 </i>
    <varray name="rec_basis" >
     <v>       0.08929369       0.00000000       0.00000000 </v>
     <v>       0.00000000       0.08929369       0.00000000 </v>
     <v>       0.00000000       0.00000000       0.06256648 </v>
    </varray>
   </crystal>
   <varray name="positions" >
    <v>       0.00000000       0.25000000       0.12500000 </v>
    <v>       0.00000000       0.25000000       0.62500000 </v>
    <v>       0.00000000       0.75000000       0.12500000 </v>
    <v>       0.00000000       0.75000000       0.62500000 </v>
    <v>       0.50000000       0.25000000       0.12500000 </v>
    <v>       0.50000000       0.25000000       0.62500000 </v>
    <v>       0.50000000       0.75000000       0.12500000 </v>
    <v>       0.50000000       0.75000000       0.62500000 </v>
    <v>       0.00000000       0.25000000       0.37500000 </v>
    <v>       0.00000000       0.25000000       0.87500000 </v>
    <v>       0.00000000       0.75000000       0.37500000 </v>
    <v>       0.00000000       0.75000000       0.87500000 </v>
    <v>       0.50000000       0.25000000       0.37500000 </v>
    <v>       0.50000000       0.25000000       0.87500000 </v>
    <v>       0.50000000       0.75000000       0.37500000 </v>
    <v>       0.50000000       0.75000000       0.87500000 </v>
    <v>       0.25000000       0.00000000       0.12500000 </v>
    <v>       0.25000000       0.00000000       0.62500000 </v>
    <v>       0.25000000       0.50000000       0.12500000 </v>
    <v>       0.25000000       0.50000000       0.62500000 </v>
    <v>       0.75000000       0.00000000       0.12500000 </v>
    <v>       0.75000000       0.00000000       0.62500000 </v>
    <v>       0.75000000       0.50000000       0.12500000 </v>
    <v>       0.75000000       0.50000000       0.62500000 </v>
    <v>       0.25000000       0.00000000       0.37500000 </v>
    <v>       0.25000000       0.00000000       0.87500000 </v>
    <v>       0.25000000       0.50000000       0.37500000 </v>
    <v>       0.25000000       0.50000000       0.87500000 </v>
    <v>       0.75000000       0.00000000       0.37500000 </v>
    <v>       0.75000000       0.00000000       0.87500000 </v>
    <v>       0.75000000       0.50000000       0.37500000 </v>
    <v>       0.75000000       0.50000000       0.87500000 </v>
    <v>       0.00000000       0.00000000       0.50000000 </v>
    <v>       0.00000000       0.50000000       0.00000000 </v>
    <v>       0.00000000       0.50000000       0.50000000 </v>
    <v>       0.50000000       0.00000000       0.00000000 </v>
    <v>       0.50000000       0.00000000       0.50000000 </v>
    <v>       0.50000000       0.50000000       0.00000000 </v>
    <v>       0.25000000       0.25000000       0.00000000 </v>
    <v>       0.25000000       0.25000000       0.50000000 </v>
    <v>       0.25000000       0.75000000       0.00000000 </v>
    <v>       0.25000000       0.75000000       0.50000000 </v>
    <v>       0.75000000       0.25000000       0.00000000 </v>
    <v>       0.75000000       0.25000000       0.50000000 </v>
    <v>       0.75000000       0.75000000       0.00000000 </v>
    <v>       0.75000000       0.75000000       0.50000000 </v>
    <v>       0.25000000       0.25000000       0.25000000 </v>
    <v>       0.25000000       0.25000000       0.75000000 </v>
    <v>       0.25000000       0.75000000       0.25000000 </v>
    <v>       0.25000000       0.75000000       0.75000000 </v>
    <v>       0.75000000       0.25000000       0.25000000 </v>
    <v>       0.75000000       0.25000000       0.75000000 </v>
    <v>       0.75000000       0.75000000       0.25000000 </v>
    <v>       0.75000000       0.75000000       0.75000000 </v>
    <v>       0.00000000       0.00000000       0.75000000 </v>
    <v>       0.00000000       0.50000000       0.25000000 </v>
    <v>       0.00000000       0.50000000       0.75000000 </v>
    <v>       0.50000000       0.00000000       0.25000000 </v>
    <v>       0.50000000       0.00000000       0.75000000 </v>
    <v>       0.50000000       0.50000000       0.25000000 </v>
    <v>       0.00000000       0.00000000       0.00000000 </v>
    <v>       0.00000000       0.00000000       0.25000000 </v>
    <v>       0.50000000       0.50000000       0.75000000 </v>
    <v>       0.50000000       0.50000000       0.50000000 </v>
    <v>       0.00000000       0.00000000       0.62500000 </v>
    <v>       0.00000000       0.50000000       0.12500000 </v>
    <v>       0.00000000       0.50000000       0.62500000 </v>
    <v>       0.50000000       0.00000000       0.12500000 </v>
    <v>       0.50000000       0.00000000       0.62500000 </v>
    <v>       0.50000000       0.50000000       0.12500000 </v>
    <v>       0.00000000       0.00000000       0.37500000 </v>
    <v>       0.00000000       0.00000000       0.87500000 </v>
    <v>       0.00000000       0.50000000       0.37500000 </v>
    <v>       0.00000000       0.50000000       0.87500000 </v>
    <v>       0.50000000       0.00000000       0.37500000 </v>
    <v>       0.50000000       0.00000000       0.87500000 </v>
    <v>       0.50000000       0.50000000       0.37500000 </v>
    <v>       0.50000000       0.50000000       0.87500000 </v>
    <v>       0.25000000       0.25000000       0.37500000 </v>
    <v>       0.25000000       0.25000000       0.87500000 </v>
    <v>       0.25000000       0.75000000       0.37500000 </v>
    <v>       0.25000000       0.75000000       0.87500000 </v>
    <v>       0.75000000       0.25000000       0.37500000 </v>
    <v>       0.75000000       0.25000000       0.87500000 </v>
    <v>       0.75000000       0.75000000       0.37500000 </v>
    <v>       0.75000000       0.75000000       0.87500000 </v>
    <v>       0.25000000       0.25000000       0.12500000 </v>
    <v>       0.25000000       0.25000000       0.62500000 </v>
    <v>       0.25000000       0.75000000       0.12500000 </v>
    <v>       0.25000000       0.75000000       0.62500000 </v>
    <v>       0.75000000       0.25000000       0.12500000 </v>
    <v>       0.75000000       0.25000000       0.62500000 </v>
    <v>       0.75000000       0.75000000       0.12500000 </v>
    <v>       0.75000000       0.75000000       0.62500000 </v>
    <v>       0.10900000       0.14100000       0.25000000 </v>
    <v>       0.35900000       0.10900000       0.25000000 </v>
    <v>       0.60900000       0.14100000       0.25000000 </v>
    <v>       0.85900000       0.10900000       0.25000000 </v>
    <v>       0.14100000       0.39100000       0.25000000 </v>
    <v>       0.39100000       0.35900000       0.25000000 </v>
    <v>       0.64100000       0.39100000       0.25000000 </v>
    <v>       0.89100000       0.35900000       0.25000000 </v>
    <v>       0.10900000       0.64100000       0.25000000 </v>
    <v>       0.35900000       0.60900000       0.25000000 </v>
    <v>       0.60900000       0.64100000       0.25000000 </v>
    <v>       0.85900000       0.60900000       0.25000000 </v>
    <v>       0.14100000       0.89100000       0.25000000 </v>
    <v>       0.39100000       0.85900000       0.25000000 </v>
    <v>       0.64100000       0.89100000       0.25000000 </v>
    <v>       0.89100000       0.85900000       0.25000000 </v>
    <v>       0.14100000       0.10900000       0.50000000 </v>
    <v>       0.39100000       0.14100000       0.50000000 </v>
    <v>       0.64100000       0.10900000       0.50000000 </v>
    <v>       0.89100000       0.14100000       0.50000000 </v>
    <v>       0.10900000       0.35900000       0.50000000 </v>
    <v>       0.35900000       0.39100000       0.50000000 </v>
    <v>       0.60900000       0.35900000       0.50000000 </v>
    <v>       0.85900000       0.39100000       0.50000000 </v>
    <v>       0.14100000       0.60900000       0.50000000 </v>
    <v>       0.39100000       0.64100000       0.50000000 </v>
    <v>       0.64100000       0.60900000       0.50000000 </v>
    <v>       0.89100000       0.64100000       0.50000000 </v>
    <v>       0.10900000       0.85900000       0.50000000 </v>
    <v>       0.35900000       0.89100000       0.50000000 </v>
    <v>       0.60900000       0.85900000       0.50000000 </v>
    <v>       0.85900000       0.89100000       0.50000000 </v>
    <v>       0.10900000       0.14100000       0.75000000 </v>
    <v>       0.35900000       0.10900000       0.75000000 </v>
    <v>       0.60900000       0.14100000       0.75000000 </v>
    <v>       0.85900000       0.10900000       0.75000000 </v>
    <v>       0.14100000       0.39100000       0.75000000 </v>
    <v>       0.39100000       0.35900000       0.75000000 </v>
    <v>       0.64100000       0.39100000       0.75000000 </v>
    <v>       0.89100000       0.35900000       0.75000000 </v>
    <v>       0.10900000       0.64100000       0.75000000 </v>
    <v>       0.35900000       0.60900000       0.75000000 </v>
    <v>       0.60900000       0.64100000       0.75000000 </v>
    <v>       0.85900000       0.60900000       0.75000000 </v>
    <v>       0.14100000       0.89100000       0.75000000 </v>
    <v>       0.39100000       0.85900000       0.75000000 </v>
    <v>       0.64100000       0.89100000       0.75000000 </v>
    <v>       0.89100000       0.85900000       0.75000000 </v>
    <v>       0.14100000       0.10900000       0.00000000 </v>
    <v>       0.39100000       0.14100000       0.00000000 </v>
    <v>       0.64100000       0.10900000       0.00000000 </v>
    <v>       0.89100000       0.14100000       0.00000000 </v>
    <v>       0.10900000       0.35900000       0.00000000 </v>
    <v>       0.35900000       0.39100000       0.00000000 </v>
    <v>       0.60900000       0.35900000       0.00000000 </v>
    <v>       0.85900000       0.39100000       0.00000000 </v>
    <v>       0.14100000       0.60900000       0.00000000 </v>
    <v>       0.39100000       0.64100000       0.00000000 </v>
    <v>       0.64100000       0.60900000       0.00000000 </v>
    <v>       0.89100000       0.64100000       0.00000000 </v>
    <v>       0.10900000       0.85900000       0.00000000 </v>
    <v>       0.35900000       0.89100000       0.00000000 </v>
    <v>       0.60900000       0.85900000       0.00000000 </v>
    <v>       0.85900000       0.89100000       0.00000000 </v>
   </varray>
  </structure>
  <varray name="forces" >
   <v>       0.00000000       0.81761496       0.00000000 </v>
   <v>       0.00000000      -0.03544202       0.00000000 </v>
   <v>       0.00000000      -0.81761496       0.00000000 </v>
   <v>       0.00000000       0.03544202       0.00000000 </v>
   <v>       0.00000000       0.03544202       0.00000000 </v>
   <v>       0.00000000      -0.81761496       0.00000000 </v>
   <v>       0.00000000      -0.03544202       0.00000000 </v>
   <v>       0.00000000       0.81761496       0.00000000 </v>
   <v>      -0.01577698      -0.15918470      -0.05234635 </v>
   <v>       0.01577698      -0.15918470       0.05234635 </v>
   <v>       0.01577698       0.15918470      -0.05234635 </v>
   <v>      -0.01577698       0.15918470       0.05234635 </v>
   <v>      -0.01577698       0.15918470       0.05234635 </v>
   <v>       0.01577698       0.15918470      -0.05234635 </v>
   <v>       0.01577698      -0.15918470       0.05234635 </v>
   <v>      -0.01577698      -0.15918470      -0.05234635 </v>
   <v>       0.81761496       0.00000000       0.00000000 </v>
   <v>      -0.03544202       0.00000000       0.00000000 </v>
   <v>       0.03544202       0.00000000       0.00000000 </v>
   <v>      -0.81761496       0.00000000       0.00000000 </v>
   <v>      -0.81761496       0.00000000       0.00000000 </v>
   <v>       0.03544202       0.00000000       0.00000000 </v>
   <v>      -0.03544202       0.00000000       0.00000000 </v>
   <v>       0.81761496       0.00000000       0.00000000 </v>
   <v>      -0.15918470       0.01577698      -0.05234635 </v>
   <v>      -0.15918470      -0.01577698       0.05234635 </v>
   <v>       0.15918470       0.01577698       0.05234635 </v>
   <v>       0.15918470      -0.01577698      -0.05234635 </v>
   <v>       0.15918470      -0.01577698      -0.05234635 </v>
   <v>       0.15918470       0.01577698       0.05234635 </v>
   <v>      -0.15918470      -0.01577698       0.05234635 </v>
   <v>      -0.15918470       0.01577698      -0.05234635 </v>
   <v>       0.00000000       0.00000000      -0.38749436 </v>
   <v>       0.00000000       0.00000000      -0.08362154 </v>
   <v>       0.00000000       0.00000000      -0.08362154 </v>
   <v>       0.00000000       0.00000000      -0.08362154 </v>
   <v>       0.00000000       0.00000000      -0.08362154 </v>
   <v>       0.00000000       0.00000000      -0.38749436 </v>
   <v>       0.01685409       0.04311543       0.01034249 </v>
   <v>      -0.01685409      -0.04311543       0.01034249 </v>
   <v>       0.04311543      -0.01685409       0.01034249 </v>
   <v>      -0.04311543       0.01685409       0.01034249 </v>
   <v>      -0.04311543       0.01685409       0.01034249 </v>
   <v>       0.04311543      -0.01685409       0.01034249 </v>
   <v>      -0.01685409      -0.04311543       0.01034249 </v>
   <v>       0.01685409       0.04311543       0.01034249 </v>
   <v>       0.04311543       0.01685409      -0.01034249 </v>
   <v>      -0.04311543      -0.01685409      -0.01034249 </v>
   <v>       0.01685409      -0.04311543      -0.01034249 </v>
   <v>      -0.01685409       0.04311543      -0.01034249 </v>
   <v>      -0.01685409       0.04311543      -0.01034249 </v>
   <v>       0.01685409      -0.04311543      -0.01034249 </v>
   <v>      -0.04311543      -0.01685409      -0.01034249 </v>
   <v>       0.04311543       0.01685409      -0.01034249 </v>
   <v>       0.00000000       0.00000000       0.38749436 </v>
   <v>       0.00000000       0.00000000       0.08362154 </v>
   <v>       0.00000000       0.00000000       0.08362154 </v>
   <v>       0.00000000       0.00000000       0.08362154 </v>
   <v>       0.00000000       0.00000000       0.08362154 </v>
   <v>       0.00000000       0.00000000       0.38749436 </v>
   <v>       0.00000000       0.00000000      -3.08164706 </v>
   <v>       0.00000000       0.00000000       3.08164706 </v>
   <v>       0.00000000       0.00000000       3.08164706 </v>
   <v>       0.00000000       0.00000000      -3.08164706 </v>
   <v>       0.00000000       0.00000000       0.00000000 </v>
   <v>       0.00000000       0.00000000       0.00000000 </v>
   <v>       0.00000000       0.00000000       0.00000000 </v>
   <v>       0.00000000       0.00000000       0.00000000 </v>
   <v>       0.00000000       0.00000000       0.00000000 </v>
   <v>       0.00000000       0.00000000       0.00000000 </v>
   <v>       0.00000000       0.00000000       0.03170299 </v>
   <v>       0.00000000       0.00000000      -0.03170299 </v>
   <v>       0.00000000       0.00000000       0.00000000 </v>
   <v>       0.00000000       0.00000000       0.00000000 </v>
   <v>       0.00000000       0.00000000       0.00000000 </v>
   <v>       0.00000000       0.00000000       0.00000000 </v>
   <v>       0.00000000       0.00000000      -0.03170299 </v>
   <v>       0.00000000       0.00000000       0.03170299 </v>
   <v>      -0.00921912       0.00921912       0.00000000 </v>
   <v>       0.00921912      -0.00921912       0.00000000 </v>
   <v>       0.00921912       0.00921912       0.00000000 </v>
   <v>      -0.00921912      -0.00921912       0.00000000 </v>
   <v>      -0.00921912      -0.00921912       0.00000000 </v>
   <v>       0.00921912       0.00921912       0.00000000 </v>
   <v>       0.00921912      -0.00921912       0.00000000 </v>
   <v>      -0.00921912       0.00921912       0.00000000 </v>
   <v>      -0.03538693      -0.03538693       0.00000000 </v>
   <v>       0.03538693       0.03538693       0.00000000 </v>
   <v>      -0.03538693       0.03538693       0.00000000 </v>
   <v>       0.03538693      -0.03538693       0.00000000 </v>
   <v>       0.03538693      -0.03538693       0.00000000 </v>
   <v>      -0.03538693       0.03538693       0.00000000 </v>
   <v>       0.03538693       0.03538693       0.00000000 </v>
   <v>      -0.03538693      -0.03538693       0.00000000 </v>
   <v>      -0.32943935      -0.42249313      -0.89108218 </v>
   <v>       0.02894984      -0.03314758      -0.04740737 </v>
   <v>      -0.01360083      -0.02072948      -0.02124617 </v>
   <v>       0.42249313      -0.32943935      -0.89108218 </v>
   <v>      -0.02072948       0.01360083      -0.02124617 </v>
   <v>      -0.05952449      -0.07163800      -0.05570565 </v>
   <v>       0.07163800      -0.05952449      -0.05570565 </v>
   <v>       0.03314758       0.02894984      -0.04740737 </v>
   <v>      -0.03314758      -0.02894984      -0.04740737 </v>
   <v>      -0.07163800       0.05952449      -0.05570565 </v>
   <v>       0.05952449       0.07163800      -0.05570565 </v>
   <v>       0.02072948      -0.01360083      -0.02124617 </v>
   <v>      -0.42249313       0.32943935      -0.89108218 </v>
   <v>       0.01360083       0.02072948      -0.02124617 </v>
   <v>      -0.02894984       0.03314758      -0.04740737 </v>
   <v>       0.32943935       0.42249313      -0.89108218 </v>
   <v>       0.07163800       0.05952449       0.05570565 </v>
   <v>       0.03314758      -0.02894984       0.04740737 </v>
   <v>      -0.02072948      -0.01360083       0.02124617 </v>
   <v>      -0.05952449       0.07163800       0.05570565 </v>
   <v>      -0.01360083       0.02072948       0.02124617 </v>
   <v>       0.42249313       0.32943935       0.89108218 </v>
   <v>      -0.32943935       0.42249313       0.89108218 </v>
   <v>       0.02894984       0.03314758       0.04740737 </v>
   <v>      -0.02894984      -0.03314758       0.04740737 </v>
   <v>       0.32943935      -0.42249313       0.89108218 </v>
   <v>      -0.42249313      -0.32943935       0.89108218 </v>
   <v>       0.01360083      -0.02072948       0.02124617 </v>
   <v>       0.05952449      -0.07163800       0.05570565 </v>
   <v>       0.02072948       0.01360083       0.02124617 </v>
   <v>      -0.03314758       0.02894984       0.04740737 </v>
   <v>      -0.07163800      -0.05952449       0.05570565 </v>
   <v>       0.05952449       0.07163800      -0.05570565 </v>
   <v>       0.02072948      -0.01360083      -0.02124617 </v>
   <v>      -0.03314758      -0.02894984      -0.04740737 </v>
   <v>      -0.07163800       0.05952449      -0.05570565 </v>
   <v>      -0.02894984       0.03314758      -0.04740737 </v>
   <v>       0.32943935       0.42249313      -0.89108218 </v>
   <v>      -0.42249313       0.32943935      -0.89108218 </v>
   <v>       0.01360083       0.02072948      -0.02124617 </v>
   <v>      -0.01360083      -0.02072948      -0.02124617 </v>
   <v>       0.42249313      -0.32943935      -0.89108218 </v>
   <v>      -0.32943935      -0.42249313      -0.89108218 </v>
   <v>       0.02894984      -0.03314758      -0.04740737 </v>
   <v>       0.07163800      -0.05952449      -0.05570565 </v>
   <v>       0.03314758       0.02894984      -0.04740737 </v>
   <v>      -0.02072948       0.01360083      -0.02124617 </v>
   <v>      -0.05952449      -0.07163800      -0.05570565 </v>
   <v>      -0.42249313      -0.32943935       0.89108218 </v>
   <v>       0.01360083      -0.02072948       0.02124617 </v>
   <v>      -0.02894984      -0.03314758       0.04740737 </v>
   <v>       0.32943935      -0.42249313       0.89108218 </v>
   <v>      -0.03314758       0.02894984       0.04740737 </v>
   <v>      -0.07163800      -0.05952449       0.05570565 </v>
   <v>       0.05952449      -0.07163800       0.05570565 </v>
   <v>       0.02072948       0.01360083       0.02124617 </v>
   <v>      -0.02072948      -0.01360083       0.02124617 </v>
   <v>      -0.05952449       0.07163800       0.05570565 </v>
   <v>       0.07163800       0.05952449       0.05570565 </v>
   <v>       0.03314758      -0.02894984       0.04740737 </v>
   <v>      -0.32943935       0.42249313       0.89108218 </v>
   <v>       0.02894984       0.03314758       0.04740737 </v>
   <v>      -0.01360083       0.02072948       0.02124617 </v>
   <v>       0.42249313       0.32943935       0.89108218 </v>
  </varray>
  <varray name="stress" >
   <v>      -1.98489641       0.00000000       0.00000000 </v>
   <v>       0.00000000      -1.98489641       0.00000000 </v>
   <v>       0.00000000       0.00000000     -12.04757528 </v>
  </varray>
  <energy>
   <i name="e_fr_energy">  -1150.91496949 </i>
   <i name="e_wo_entrp">  -1150.91496949 </i>
   <i name="e_0_energy">     -0.00000000 </i>
  </energy>
  <time name="totalsc">  916.86  919.26</time>
 </calculation>
 <calculation>
  <scstep>
   <time name="dav">   82.55   82.55</time>
   <time name="total">   84.28   84.38</time>
   <energy>
    <i name="alphaZ">   5669.97085929 </i>
    <i name="ewald"> -61378.19569719 </i>
    <i name="hartreedc"> -15281.39626623 </i>
    <i name="XCdc">   2879.96059868 </i>
    <i name="pawpsdc"> 111047.99188905 </i>
    <i name="pawaedc">-109795.92682931 </i>
    <i name="eentropy">     -0.00000000 </i>
    <i name="bandstr">  -6915.99384088 </i>
    <i name="atom">  72650.08363186 </i>
    <i name="e_fr_energy">  -1123.50565473 </i>
    <i name="e_wo_entrp">  -1123.50565473 </i>
    <i name="e_0_energy">  -1123.50565473 </i>
   </energy>
  </scstep>
  <scstep>
   <time name="diag">    8.29    8.30</time>
   <time name="diis">   13.64   13.65</time>
   <time name="orth">    4.75    4.75</time>
   <time name="total">   28.42   28.44</time>
   <energy>
    <i name="e_fr_energy">  -1152.48263134 </i>
    <i name="e_wo_entrp">  -1152.48263134 </i>
    <i name="e_0_energy">  -1152.48263134 </i>
   </energy>
  </scstep>
  <scstep>
   <time name="diag">    8.30    8.29</time>
   <time name="diis">   13.57   13.57</time>
   <time name="orth">    4.74    4.74</time>
   <time name="total">   28.35   28.38</time>
   <energy>
    <i name="e_fr_energy">  -1152.72720391 </i>
    <i name="e_wo_entrp">  -1152.72720391 </i>
    <i name="e_0_energy">  -1152.72720391 </i>
   </energy>
  </scstep>
  <scstep>
   <time name="diag">    8.30    8.30</time>
   <time name="diis">   14.07   14.08</time>
   <time name="orth">    4.74    4.74</time>
   <time name="total">   28.85   28.90</time>
   <energy>
    <i name="e_fr_energy">  -1152.64051432 </i>
    <i name="e_wo_entrp">  -1152.64051432 </i>
    <i name="e_0_energy">  -1152.64051432 </i>
   </energy>
  </scstep>
  <scstep>
   <time name="diag">    8.29    8.29</time>
   <time name="diis">   14.34   14.34</time>
   <time name="orth">    4.74    4.74</time>
   <time name="total">   29.12   29.13</time>
   <energy>
    <i name="e_fr_energy">  -1152.61762108 </i>
    <i name="e_wo_entrp">  -1152.61762108 </i>
    <i name="e_0_energy">  -1152.61762108 </i>
   </energy>
  </scstep>
  <scstep>
   <time name="diag">    8.30    8.30</time>
   <time name="diis">   14.96   14.97</time>
   <time name="orth">    4.72    4.73</time>
   <time name="total">   29.73   29.77</time>
   <energy>
    <i name="e_fr_energy">  -1152.61292421 </i>
    <i name="e_wo_entrp">  -1152.61292421 </i>
    <i name="e_0_energy">  -1152.61292421 </i>
   </energy>
  </scstep>
  <scstep>
   <time name="diag">    8.30    8.30</time>
   <time name="diis">   15.80   15.80</time>
   <time name="orth">    4.75    4.75</time>
   <time name="total">   30.59   30.62</time>
   <energy>
    <i name="e_fr_energy">  -1152.61593289 </i>
    <i name="e_wo_entrp">  -1152.61593289 </i>
    <i name="e_0_energy">  -1152.61593289 </i>
   </energy>
  </scstep>
  <scstep>
   <time name="diag">    8.27    8.28</time>
   <time name="diis">   18.25   18.26</time>
   <time name="orth">    4.74    4.75</time>
   <time name="total">   33.01   33.08</time>
   <energy>
    <i name="e_fr_energy">  -1152.61613336 </i>
    <i name="e_wo_entrp">  -1152.61613336 </i>
    <i name="e_0_energy">  -1152.61613336 </i>
   </energy>
  </scstep>
  <scstep>
   <time name="diag">    8.28    8.28</time>
   <time name="diis">   14.82   14.82</time>
   <time name="orth">    4.74    4.74</time>
   <time name="total">   29.59   29.62</time>
   <energy>
    <i name="e_fr_energy">  -1152.61555950 </i>
    <i name="e_wo_entrp">  -1152.61555950 </i>
    <i name="e_0_energy">  -1152.61555950 </i>
   </energy>
  </scstep>
  <scstep>
   <time name="diag">    8.30    8.30</time>
   <time name="diis">   11.76   11.77</time>
   <time name="orth">    4.74    4.74</time>
   <time name="total">   25.37   25.40</time>
   <energy>
    <i name="alphaZ">   5669.97085929 </i>
    <i name="ewald"> -61378.19569719 </i>
    <i name="hartreedc"> -15200.09077358 </i>
    <i name="XCdc">   2854.38583348 </i>
    <i name="pawpsdc"> 112667.31600248 </i>
    <i name="pawaedc">-111416.18928597 </i>
    <i name="eentropy">     -0.00000000 </i>
    <i name="bandstr">  -6999.89609386 </i>
    <i name="atom">  72650.08363186 </i>
    <i name="e_fr_energy">  -1152.61552349 </i>
    <i name="e_wo_entrp">  -1152.61552349 </i>
    <i name="e_0_energy">  -1152.61552349 </i>
   </energy>
  </scstep>
  <structure>
   <crystal>
    <varray name="basis" >
     <v>      11.19050825       0.00000000       0.00000000 </v>
     <v>       0.00000000      11.19050825       0.00000000 </v>
     <v>       0.00000000       0.00000000      15.90944059 </v>
    </varray>
    <i name="volume">   1992.29907015 </i>
    <varray name="rec_basis" >
     <v>       0.08936145       0.00000000       0.00000000 </v>
     <v>       0.00000000       0.08936145       0.00000000 </v>
     <v>       0.00000000       0.00000000       0.06285576 </v>
    </varray>
   </crystal>
   <varray name="positions" >
    <v>       0.00000000       0.25352209       0.12500000 </v>
    <v>       0.00000000       0.24984732       0.62500000 </v>
    <v>       0.00000000       0.74647791       0.12500000 </v>
    <v>       0.00000000       0.75015268       0.62500000 </v>
    <v>       0.50000000       0.25015268       0.12500000 </v>
    <v>       0.50000000       0.24647791       0.62500000 </v>
    <v>       0.50000000       0.74984732       0.12500000 </v>
    <v>       0.50000000       0.75352209       0.62500000 </v>
    <v>      -0.00006796       0.24931427       0.37484200 </v>
    <v>       0.00006796       0.24931427       0.87515800 </v>
    <v>       0.00006796       0.75068573       0.37484200 </v>
    <v>      -0.00006796       0.75068573       0.87515800 </v>
    <v>       0.49993204       0.25068573       0.37515800 </v>
    <v>       0.50006796       0.25068573       0.87484200 </v>
    <v>       0.50006796       0.74931427       0.37515800 </v>
    <v>       0.49993204       0.74931427       0.87484200 </v>
    <v>       0.25352209       0.00000000       0.12500000 </v>
    <v>       0.24984732       0.00000000       0.62500000 </v>
    <v>       0.25015268       0.50000000       0.12500000 </v>
    <v>       0.24647791       0.50000000       0.62500000 </v>
    <v>       0.74647791       0.00000000       0.12500000 </v>
    <v>       0.75015268       0.00000000       0.62500000 </v>
    <v>       0.74984732       0.50000000       0.12500000 </v>
    <v>       0.75352209       0.50000000       0.62500000 </v>
    <v>       0.24931427       0.00006796       0.37484200 </v>
    <v>       0.24931427      -0.00006796       0.87515800 </v>
    <v>       0.25068573       0.50006796       0.37515800 </v>
    <v>       0.25068573       0.49993204       0.87484200 </v>
    <v>       0.75068573      -0.00006796       0.37484200 </v>
    <v>       0.75068573       0.00006796       0.87515800 </v>
    <v>       0.74931427       0.49993204       0.37515800 </v>
    <v>       0.74931427       0.50006796       0.87484200 </v>
    <v>       0.00000000       0.00000000       0.49883040 </v>
    <v>       0.00000000       0.50000000      -0.00025240 </v>
    <v>       0.00000000       0.50000000       0.49974760 </v>
    <v>       0.50000000       0.00000000      -0.00025240 </v>
    <v>       0.50000000       0.00000000       0.49974760 </v>
    <v>       0.50000000       0.50000000      -0.00116960 </v>
    <v>       0.25007260       0.25018573       0.00003122 </v>
    <v>       0.24992740       0.24981427       0.50003122 </v>
    <v>       0.25018573       0.74992740       0.00003122 </v>
    <v>       0.24981427       0.75007260       0.50003122 </v>
    <v>       0.74981427       0.25007260       0.00003122 </v>
    <v>       0.75018573       0.24992740       0.50003122 </v>
    <v>       0.74992740       0.74981427       0.00003122 </v>
    <v>       0.75007260       0.75018573       0.50003122 </v>
    <v>       0.25018573       0.25007260       0.24996878 </v>
    <v>       0.24981427       0.24992740       0.74996878 </v>
    <v>       0.25007260       0.74981427       0.24996878 </v>
    <v>       0.24992740       0.75018573       0.74996878 </v>
    <v>       0.74992740       0.25018573       0.24996878 </v>
    <v>       0.75007260       0.24981427       0.74996878 </v>
    <v>       0.74981427       0.74992740       0.24996878 </v>
    <v>       0.75018573       0.75007260       0.74996878 </v>
    <v>       0.00000000       0.00000000       0.75116960 </v>
    <v>       0.00000000       0.50000000       0.25025240 </v>
    <v>       0.00000000       0.50000000       0.75025240 </v>
    <v>       0.50000000       0.00000000       0.25025240 </v>
    <v>       0.50000000       0.00000000       0.75025240 </v>
    <v>       0.50000000       0.50000000       0.25116960 </v>
    <v>       0.00000000       0.00000000      -0.00930156 </v>
    <v>       0.00000000       0.00000000       0.25930156 </v>
    <v>       0.50000000       0.50000000       0.75930156 </v>
    <v>       0.50000000       0.50000000       0.49069844 </v>
    <v>       0.00000000       0.00000000       0.62500000 </v>
    <v>       0.00000000       0.50000000       0.12500000 </v>
    <v>       0.00000000       0.50000000       0.62500000 </v>
    <v>       0.50000000       0.00000000       0.12500000 </v>
    <v>       0.50000000       0.00000000       0.62500000 </v>
    <v>       0.50000000       0.50000000       0.12500000 </v>
    <v>       0.00000000       0.00000000       0.37509569 </v>
    <v>       0.00000000       0.00000000       0.87490431 </v>
    <v>       0.00000000       0.50000000       0.37500000 </v>
    <v>       0.00000000       0.50000000       0.87500000 </v>
    <v>       0.50000000       0.00000000       0.37500000 </v>
    <v>       0.50000000       0.00000000       0.87500000 </v>
    <v>       0.50000000       0.50000000       0.37490431 </v>
    <v>       0.50000000       0.50000000       0.87509569 </v>
    <v>       0.24996029       0.25003971       0.37500000 </v>
    <v>       0.25003971       0.24996029       0.87500000 </v>
    <v>       0.25003971       0.75003971       0.37500000 </v>
    <v>       0.24996029       0.74996029       0.87500000 </v>
    <v>       0.74996029       0.24996029       0.37500000 </v>
    <v>       0.75003971       0.25003971       0.87500000 </v>
    <v>       0.75003971       0.74996029       0.37500000 </v>
    <v>       0.74996029       0.75003971       0.87500000 </v>
    <v>       0.24984756       0.24984756       0.12500000 </v>
    <v>       0.25015244       0.25015244       0.62500000 </v>
    <v>       0.24984756       0.75015244       0.12500000 </v>
    <v>       0.25015244       0.74984756       0.62500000 </v>
    <v>       0.75015244       0.24984756       0.12500000 </v>
    <v>       0.74984756       0.25015244       0.62500000 </v>
    <v>       0.75015244       0.75015244       0.12500000 </v>
    <v>       0.74984756       0.74984756       0.62500000 </v>
    <v>       0.10758085       0.13918000       0.24731038 </v>
    <v>       0.35912471       0.10885721       0.24985691 </v>
    <v>       0.60894141       0.14091070       0.24993587 </v>
    <v>       0.86082000       0.10758085       0.24731038 </v>
    <v>       0.14091070       0.39105859       0.24993587 </v>
    <v>       0.39074358       0.35869140       0.24983186 </v>
    <v>       0.64130860       0.39074358       0.24983186 </v>
    <v>       0.89114279       0.35912471       0.24985691 </v>
    <v>       0.10885721       0.64087529       0.24985691 </v>
    <v>       0.35869140       0.60925642       0.24983186 </v>
    <v>       0.60925642       0.64130860       0.24983186 </v>
    <v>       0.85908930       0.60894141       0.24993587 </v>
    <v>       0.13918000       0.89241915       0.24731038 </v>
    <v>       0.39105859       0.85908930       0.24993587 </v>
    <v>       0.64087529       0.89114279       0.24985691 </v>
    <v>       0.89241915       0.86082000       0.24731038 </v>
    <v>       0.14130860       0.10925642       0.50016814 </v>
    <v>       0.39114279       0.14087529       0.50014309 </v>
    <v>       0.64091070       0.10894141       0.50006413 </v>
    <v>       0.89074358       0.14130860       0.50016814 </v>
    <v>       0.10894141       0.35908930       0.50006413 </v>
    <v>       0.36082000       0.39241915       0.50268962 </v>
    <v>       0.60758085       0.36082000       0.50268962 </v>
    <v>       0.85912471       0.39114279       0.50014309 </v>
    <v>       0.14087529       0.60885721       0.50014309 </v>
    <v>       0.39241915       0.63918000       0.50268962 </v>
    <v>       0.63918000       0.60758085       0.50268962 </v>
    <v>       0.89105859       0.64091070       0.50006413 </v>
    <v>       0.10925642       0.85869140       0.50016814 </v>
    <v>       0.35908930       0.89105859       0.50006413 </v>
    <v>       0.60885721       0.85912471       0.50014309 </v>
    <v>       0.85869140       0.89074358       0.50016814 </v>
    <v>       0.10925642       0.14130860       0.74983186 </v>
    <v>       0.35908930       0.10894141       0.74993587 </v>
    <v>       0.60885721       0.14087529       0.74985691 </v>
    <v>       0.85869140       0.10925642       0.74983186 </v>
    <v>       0.14087529       0.39114279       0.74985691 </v>
    <v>       0.39241915       0.36082000       0.74731038 </v>
    <v>       0.63918000       0.39241915       0.74731038 </v>
    <v>       0.89105859       0.35908930       0.74993587 </v>
    <v>       0.10894141       0.64091070       0.74993587 </v>
    <v>       0.36082000       0.60758085       0.74731038 </v>
    <v>       0.60758085       0.63918000       0.74731038 </v>
    <v>       0.85912471       0.60885721       0.74985691 </v>
    <v>       0.14130860       0.89074358       0.74983186 </v>
    <v>       0.39114279       0.85912471       0.74985691 </v>
    <v>       0.64091070       0.89105859       0.74993587 </v>
    <v>       0.89074358       0.85869140       0.74983186 </v>
    <v>       0.13918000       0.10758085       0.00268962 </v>
    <v>       0.39105859       0.14091070       0.00006413 </v>
    <v>       0.64087529       0.10885721       0.00014309 </v>
[...]
       <r>   -15.7372     0.0000    32.0000 </r>
       <r>   -15.5856     0.0000    32.0000 </r>
       <r>   -15.4340     0.0000    32.0000 </r>
       <r>   -15.2823     0.0000    32.0000 </r>
       <r>   -15.1307     0.2513    32.0381 </r>
       <r>   -14.9791    28.3087    36.3304 </r>
       <r>   -14.8275    56.9751    44.9693 </r>
       <r>   -14.6758    46.1472    51.9664 </r>
       <r>   -14.5242    29.2238    56.3975 </r>
       <r>   -14.3726    25.3094    60.2350 </r>
       <r>   -14.2209    35.3314    65.5922 </r>
       <r>   -14.0693   120.3451    83.8396 </r>
       <r>   -13.9177   150.4664   106.6542 </r>
       <r>   -13.7661   104.1009   122.4385 </r>
       <r>   -13.6144    21.5057   125.6993 </r>
       <r>   -13.4628     1.9830   126.0000 </r>
       <r>   -13.3112     0.0000   126.0000 </r>
       <r>   -13.1596     0.0000   126.0000 </r>
       <r>   -13.0079     0.0000   126.0000 </r>
       <r>   -12.8563     0.0000   126.0000 </r>
       <r>   -12.7047     0.1921   126.0291 </r>
       <r>   -12.5531    28.4509   130.3430 </r>
       <r>   -12.4014   142.3605   151.9285 </r>
       <r>   -12.2498   164.9226   176.9350 </r>
       <r>   -12.0982   142.6852   198.5697 </r>
       <r>   -11.9466   119.0088   216.6145 </r>
       <r>   -11.7949    34.6812   221.8731 </r>
       <r>   -11.6433     0.8371   222.0000 </r>
       <r>   -11.4917     0.0000   222.0000 </r>
       <r>   -11.3401     0.0000   222.0000 </r>
       <r>   -11.1884     0.0000   222.0000 </r>
       <r>   -11.0368     0.0000   222.0000 </r>
       <r>   -10.8852     0.0000   222.0000 </r>
       <r>   -10.7336     0.0000   222.0000 </r>
       <r>   -10.5819     0.0000   222.0000 </r>
       <r>   -10.4303     0.0000   222.0000 </r>
       <r>   -10.2787     0.0000   222.0000 </r>
       <r>   -10.1271     0.0000   222.0000 </r>
       <r>    -9.9754     0.0000   222.0000 </r>
       <r>    -9.8238     0.0000   222.0000 </r>
       <r>    -9.6722     0.0000   222.0000 </r>
       <r>    -9.5206     0.0000   222.0000 </r>
       <r>    -9.3689     0.0000   222.0000 </r>
       <r>    -9.2173     0.0000   222.0000 </r>
       <r>    -9.0657     0.0000   222.0000 </r>
       <r>    -8.9141     0.0000   222.0000 </r>
       <r>    -8.7624     0.0000   222.0000 </r>
       <r>    -8.6108     0.0000   222.0000 </r>
       <r>    -8.4592     0.0000   222.0000 </r>
       <r>    -8.3075     0.0000   222.0000 </r>
       <r>    -8.1559     0.0000   222.0000 </r>
       <r>    -8.0043     0.0000   222.0000 </r>
       <r>    -7.8527     0.0000   222.0000 </r>
       <r>    -7.7010     0.0000   222.0000 </r>
       <r>    -7.5494     0.0000   222.0000 </r>
       <r>    -7.3978     0.0000   222.0000 </r>
       <r>    -7.2462     0.0000   222.0000 </r>
       <r>    -7.0945     0.0000   222.0000 </r>
       <r>    -6.9429     0.0000   222.0000 </r>
       <r>    -6.7913     0.0000   222.0000 </r>
       <r>    -6.6397     0.0000   222.0000 </r>
       <r>    -6.4880     0.0000   222.0000 </r>
       <r>    -6.3364     0.0000   222.0000 </r>
       <r>    -6.1848     0.0000   222.0000 </r>
       <r>    -6.0332     0.0000   222.0000 </r>
       <r>    -5.8815     0.0000   222.0000 </r>
       <r>    -5.7299     0.0000   222.0000 </r>
       <r>    -5.5783     0.0000   222.0000 </r>
       <r>    -5.4267     0.0000   222.0000 </r>
       <r>    -5.2750     0.0000   222.0000 </r>
       <r>    -5.1234     0.0000   222.0000 </r>
       <r>    -4.9718     0.0000   222.0000 </r>
       <r>    -4.8202     0.0000   222.0000 </r>
       <r>    -4.6685     0.0000   222.0000 </r>
       <r>    -4.5169     0.0000   222.0000 </r>
       <r>    -4.3653     0.0000   222.0000 </r>
       <r>    -4.2137     0.0000   222.0000 </r>
       <r>    -4.0620     0.0000   222.0000 </r>
       <r>    -3.9104     0.0000   222.0000 </r>
       <r>    -3.7588     0.0000   222.0000 </r>
       <r>    -3.6072     0.0000   222.0000 </r>
       <r>    -3.4555     0.0000   222.0000 </r>
       <r>    -3.3039     0.0000   222.0000 </r>
       <r>    -3.1523     0.0000   222.0000 </r>
       <r>    -3.0007     0.0000   222.0000 </r>
       <r>    -2.8490     0.0000   222.0000 </r>
       <r>    -2.6974     0.0000   222.0000 </r>
       <r>    -2.5458     0.0000   222.0000 </r>
       <r>    -2.3942     0.0000   222.0000 </r>
       <r>    -2.2425     1.9091   222.2895 </r>
       <r>    -2.0909    19.2491   225.2081 </r>
       <r>    -1.9393    40.2230   231.3070 </r>
       <r>    -1.7876    43.4020   237.8878 </r>
       <r>    -1.6360    64.3794   247.6494 </r>
       <r>    -1.4844    49.5217   255.1581 </r>
       <r>    -1.3328    66.2743   265.2070 </r>
       <r>    -1.1811    68.9257   275.6579 </r>
       <r>    -1.0295    67.1443   285.8387 </r>
       <r>    -0.8779    76.0506   297.3699 </r>
       <r>    -0.7263    77.2830   309.0880 </r>
       <r>    -0.5746   105.6903   325.1134 </r>
       <r>    -0.4230   135.3366   345.6339 </r>
       <r>    -0.2714    67.7831   355.9115 </r>
       <r>    -0.1198    47.6093   363.1303 </r>
       <r>     0.0319    50.3104   370.7587 </r>
       <r>     0.1835    31.6726   375.5610 </r>
       <r>     0.3351    45.6463   382.4822 </r>
       <r>     0.4867    65.3382   392.3891 </r>
       <r>     0.6384    57.0968   401.0465 </r>
       <r>     0.7900    43.6181   407.6601 </r>
       <r>     0.9416    45.1350   414.5037 </r>
       <r>     1.0932    64.3124   424.2551 </r>
       <r>     1.2449    82.1836   436.7163 </r>
       <r>     1.3965    77.5688   448.4777 </r>
       <r>     1.5481   119.2516   466.5593 </r>
       <r>     1.6997    71.0570   477.3333 </r>
       <r>     1.8514    70.1741   487.9735 </r>
       <r>     2.0030    45.2952   494.8414 </r>
       <r>     2.1546    47.5086   502.0450 </r>
       <r>     2.3062    12.8935   503.9999 </r>
       <r>     2.4579     0.0004   504.0000 </r>
       <r>     2.6095     0.0000   504.0000 </r>
       <r>     2.7611     0.0000   504.0000 </r>
       <r>     2.9127     0.0000   504.0000 </r>
       <r>     3.0644     0.0000   504.0000 </r>
       <r>     3.2160     0.0000   504.0000 </r>
       <r>     3.3676     0.0000   504.0000 </r>
       <r>     3.5192     0.0000   504.0000 </r>
       <r>     3.6709     0.0000   504.0000 </r>
       <r>     3.8225     0.0000   504.0000 </r>
       <r>     3.9741     0.0000   504.0000 </r>
       <r>     4.1258     0.0000   504.0000 </r>
       <r>     4.2774     0.0000   504.0000 </r>
       <r>     4.4290     2.3865   504.3619 </r>
       <r>     4.5806    21.4060   507.6076 </r>
       <r>     4.7323    24.9233   511.3866 </r>
       <r>     4.8839    42.8362   517.8816 </r>
       <r>     5.0355    30.6099   522.5229 </r>
       <r>     5.1871    24.1546   526.1853 </r>
       <r>     5.3388    42.4206   532.6174 </r>
       <r>     5.4904    68.8066   543.0502 </r>
       <r>     5.6420    54.8298   551.3638 </r>
       <r>     5.7936    75.0643   562.7455 </r>
       <r>     5.9453    88.6815   576.1919 </r>
       <r>     6.0969   102.1923   591.6869 </r>
       <r>     6.2485    71.0836   602.4650 </r>
       <r>     6.4001    51.1424   610.2195 </r>
       <r>     6.5518    35.8805   615.6599 </r>
       <r>     6.7034    19.7178   618.6496 </r>
       <r>     6.8550    27.6429   622.8410 </r>
       <r>     7.0066    21.4553   626.0941 </r>
       <r>     7.1583    19.7333   629.0862 </r>
       <r>     7.3099    23.6863   632.6777 </r>
       <r>     7.4615    14.1114   634.8173 </r>
       <r>     7.6131     7.8359   636.0054 </r>
       <r>     7.7648    15.2112   638.3118 </r>
       <r>     7.9164    14.5881   640.5238 </r>
       <r>     8.0680    35.6366   645.9272 </r>
       <r>     8.2196    19.4510   648.8765 </r>
       <r>     8.3713    23.9758   652.5118 </r>
       <r>     8.5229    17.3458   655.1419 </r>
       <r>     8.6745    28.4003   659.4481 </r>
       <r>     8.8261    24.7197   663.1962 </r>
       <r>     8.9778    31.0494   667.9041 </r>
       <r>     9.1294    37.8494   673.6431 </r>
       <r>     9.2810    37.9344   679.3949 </r>
       <r>     9.4326    36.8008   684.9748 </r>
       <r>     9.5843    47.9029   692.2381 </r>
       <r>     9.7359    37.0602   697.8574 </r>
       <r>     9.8875    55.2757   706.2386 </r>
       <r>    10.0391    66.9909   716.3961 </r>
       <r>    10.1908    76.1048   727.9356 </r>
       <r>    10.3424    81.8368   740.3441 </r>
       <r>    10.4940    51.8204   748.2014 </r>
       <r>    10.6457    55.6104   756.6334 </r>
       <r>    10.7973    56.3679   765.1802 </r>
       <r>    10.9489    18.5701   767.9959 </r>
       <r>    11.1005     0.0271   768.0000 </r>
       <r>    11.2522     0.0000   768.0000 </r>
       <r>    11.4038     0.0000   768.0000 </r>
       <r>    11.5554     0.0000   768.0000 </r>
       <r>    11.7070     0.0000   768.0000 </r>
       <r>    11.8587     0.0000   768.0000 </r>
       <r>    12.0103     0.0000   768.0000 </r>
       <r>    12.1619     0.0000   768.0000 </r>
       <r>    12.3135     0.0000   768.0000 </r>
       <r>    12.4652     0.0000   768.0000 </r>
       <r>    12.6168     0.0000   768.0000 </r>
       <r>    12.7684     0.0000   768.0000 </r>
       <r>    12.9200     0.0000   768.0000 </r>
      </set>
     </set>
    </array>
   </total>
  </dos>
 </calculation>
 <structure name="finalpos" >
  <crystal>
   <varray name="basis" >
    <v>      11.18710741       0.00000000       0.00000000 </v>
    <v>       0.00000000      11.18710741      -0.00000000 </v>
    <v>       0.00000000       0.00000000      15.99122891 </v>
   </varray>
   <i name="volume">   2001.32424075 </i>
   <varray name="rec_basis" >
    <v>       0.08938861       0.00000000       0.00000000 </v>
    <v>       0.00000000       0.08938861      -0.00000000 </v>
    <v>       0.00000000       0.00000000       0.06253428 </v>
   </varray>
  </crystal>
  <varray name="positions" >
   <v>       0.00000000       0.25678485       0.12500000 </v>
   <v>       0.00000000       0.24853790       0.62500000 </v>
   <v>       0.00000000       0.74321515       0.12500000 </v>
   <v>       0.00000000       0.75146210       0.62500000 </v>
   <v>       0.50000000       0.25146210       0.12500000 </v>
   <v>       0.50000000       0.24321515       0.62500000 </v>
   <v>       0.50000000       0.74853790       0.12500000 </v>
   <v>       0.50000000       0.75678485       0.62500000 </v>
   <v>       0.00080256       0.25020237       0.37580745 </v>
   <v>      -0.00080256       0.25020237       0.87419255 </v>
   <v>      -0.00080256       0.74979763       0.37580745 </v>
   <v>       0.00080256       0.74979763       0.87419255 </v>
   <v>       0.50080256       0.24979763       0.37419255 </v>
   <v>       0.49919744       0.24979763       0.87580745 </v>
   <v>       0.49919744       0.75020237       0.37419255 </v>
   <v>       0.50080256       0.75020237       0.87580745 </v>
   <v>       0.25678485       0.00000000       0.12500000 </v>
   <v>       0.24853790       0.00000000       0.62500000 </v>
   <v>       0.25146210       0.50000000       0.12500000 </v>
   <v>       0.24321515       0.50000000       0.62500000 </v>
   <v>       0.74321515       0.00000000       0.12500000 </v>
   <v>       0.75146210       0.00000000       0.62500000 </v>
   <v>       0.74853790       0.50000000       0.12500000 </v>
   <v>       0.75678485       0.50000000       0.62500000 </v>
   <v>       0.25020237      -0.00080256       0.37580745 </v>
   <v>       0.25020237       0.00080256       0.87419255 </v>
   <v>       0.24979763       0.49919744       0.37419255 </v>
   <v>       0.24979763       0.50080256       0.87580745 </v>
   <v>       0.74979763       0.00080256       0.37580745 </v>
   <v>       0.74979763      -0.00080256       0.87419255 </v>
   <v>       0.75020237       0.50080256       0.37419255 </v>
   <v>       0.75020237       0.49919744       0.87580745 </v>
   <v>       0.00000000       0.00000000       0.50081073 </v>
   <v>       0.00000000       0.50000000      -0.00046297 </v>
   <v>       0.00000000       0.50000000       0.49953703 </v>
   <v>       0.50000000       0.00000000      -0.00046297 </v>
   <v>       0.50000000       0.00000000       0.49953703 </v>
   <v>       0.50000000       0.50000000       0.00081073 </v>
   <v>       0.24857654       0.24867131       0.00078190 </v>
   <v>       0.25142346       0.25132869       0.50078190 </v>
   <v>       0.24867131       0.75142346       0.00078190 </v>
   <v>       0.25132869       0.74857654       0.50078190 </v>
   <v>       0.75132869       0.24857654       0.00078190 </v>
   <v>       0.74867131       0.25142346       0.50078190 </v>
   <v>       0.75142346       0.75132869       0.00078190 </v>
   <v>       0.74857654       0.74867131       0.50078190 </v>
   <v>       0.24867131       0.24857654       0.24921810 </v>
   <v>       0.25132869       0.25142346       0.74921810 </v>
   <v>       0.24857654       0.75132869       0.24921810 </v>
   <v>       0.25142346       0.74867131       0.74921810 </v>
   <v>       0.75142346       0.24867131       0.24921810 </v>
   <v>       0.74857654       0.25132869       0.74921810 </v>
   <v>       0.75132869       0.75142346       0.24921810 </v>
   <v>       0.74867131       0.74857654       0.74921810 </v>
   <v>       0.00000000       0.00000000       0.74918927 </v>
   <v>       0.00000000       0.50000000       0.25046297 </v>
   <v>       0.00000000       0.50000000       0.75046297 </v>
   <v>       0.50000000       0.00000000       0.25046297 </v>
   <v>       0.50000000       0.00000000       0.75046297 </v>
   <v>       0.50000000       0.50000000       0.24918927 </v>
   <v>       0.00000000       0.00000000      -0.01026072 </v>
   <v>       0.00000000       0.00000000       0.26026072 </v>
   <v>       0.50000000       0.50000000       0.76026072 </v>
   <v>       0.50000000       0.50000000       0.48973928 </v>
   <v>       0.00000000       0.00000000       0.62500000 </v>
   <v>       0.00000000       0.50000000       0.12500000 </v>
   <v>       0.00000000       0.50000000       0.62500000 </v>
   <v>       0.50000000       0.00000000       0.12500000 </v>
   <v>       0.50000000       0.00000000       0.62500000 </v>
   <v>       0.50000000       0.50000000       0.12500000 </v>
   <v>       0.00000000       0.00000000       0.37695732 </v>
   <v>       0.00000000       0.00000000       0.87304268 </v>
   <v>       0.00000000       0.50000000       0.37500000 </v>
   <v>       0.00000000       0.50000000       0.87500000 </v>
   <v>       0.50000000       0.00000000       0.37500000 </v>
   <v>       0.50000000       0.00000000       0.87500000 </v>
   <v>       0.50000000       0.50000000       0.37304268 </v>
   <v>       0.50000000       0.50000000       0.87695732 </v>
   <v>       0.24869062       0.25130938       0.37500000 </v>
   <v>       0.25130938       0.24869062       0.87500000 </v>
   <v>       0.25130938       0.75130938       0.37500000 </v>
   <v>       0.24869062       0.74869062       0.87500000 </v>
   <v>       0.74869062       0.24869062       0.37500000 </v>
   <v>       0.75130938       0.25130938       0.87500000 </v>
   <v>       0.75130938       0.74869062       0.37500000 </v>
   <v>       0.74869062       0.75130938       0.87500000 </v>
   <v>       0.25404551       0.25404551       0.12500000 </v>
   <v>       0.24595449       0.24595449       0.62500000 </v>
   <v>       0.25404551       0.74595449       0.12500000 </v>
   <v>       0.24595449       0.75404551       0.62500000 </v>
   <v>       0.74595449       0.25404551       0.12500000 </v>
   <v>       0.75404551       0.24595449       0.62500000 </v>
   <v>       0.74595449       0.74595449       0.12500000 </v>
   <v>       0.75404551       0.75404551       0.62500000 </v>
   <v>       0.10965272       0.13738807       0.24131694 </v>
   <v>       0.36027220       0.10979960       0.25107223 </v>
   <v>       0.61013450       0.13967907       0.24984927 </v>
   <v>       0.86261193       0.10965272       0.24131694 </v>
   <v>       0.13967907       0.38986550       0.24984927 </v>
   <v>       0.39031815       0.35947616       0.25054851 </v>
   <v>       0.64052384       0.39031815       0.25054851 </v>
   <v>       0.89020040       0.36027220       0.25107223 </v>
   <v>       0.10979960       0.63972780       0.25107223 </v>
   <v>       0.35947616       0.60968185       0.25054851 </v>
   <v>       0.60968185       0.64052384       0.25054851 </v>
   <v>       0.86032093       0.61013450       0.24984927 </v>
   <v>       0.13738807       0.89034728       0.24131694 </v>
   <v>       0.38986550       0.86032093       0.24984927 </v>
   <v>       0.63972780       0.89020040       0.25107223 </v>
   <v>       0.89034728       0.86261193       0.24131694 </v>
   <v>       0.14052384       0.10968185       0.49945149 </v>
   <v>       0.39020040       0.13972780       0.49892777 </v>
   <v>       0.63967907       0.11013450       0.50015073 </v>
   <v>       0.89031815       0.14052384       0.49945149 </v>
   <v>       0.11013450       0.36032093       0.50015073 </v>
   <v>       0.36261193       0.39034728       0.50868306 </v>
   <v>       0.60965272       0.36261193       0.50868306 </v>
   <v>       0.86027220       0.39020040       0.49892777 </v>
   <v>       0.13972780       0.60979960       0.49892777 </v>
   <v>       0.39034728       0.63738807       0.50868306 </v>
   <v>       0.63738807       0.60965272       0.50868306 </v>
   <v>       0.88986550       0.63967907       0.50015073 </v>
   <v>       0.10968185       0.85947616       0.49945149 </v>
   <v>       0.36032093       0.88986550       0.50015073 </v>
   <v>       0.60979960       0.86027220       0.49892777 </v>
   <v>       0.85947616       0.89031815       0.49945149 </v>
   <v>       0.10968185       0.14052384       0.75054851 </v>
   <v>       0.36032093       0.11013450       0.74984927 </v>
   <v>       0.60979960       0.13972780       0.75107223 </v>
   <v>       0.85947616       0.10968185       0.75054851 </v>
   <v>       0.13972780       0.39020040       0.75107223 </v>
   <v>       0.39034728       0.36261193       0.74131694 </v>
   <v>       0.63738807       0.39034728       0.74131694 </v>
   <v>       0.88986550       0.36032093       0.74984927 </v>
   <v>       0.11013450       0.63967907       0.74984927 </v>
   <v>       0.36261193       0.60965272       0.74131694 </v>
   <v>       0.60965272       0.63738807       0.74131694 </v>
   <v>       0.86027220       0.60979960       0.75107223 </v>
   <v>       0.14052384       0.89031815       0.75054851 </v>
   <v>       0.39020040       0.86027220       0.75107223 </v>
   <v>       0.63967907       0.88986550       0.74984927 </v>
   <v>       0.89031815       0.85947616       0.75054851 </v>
   <v>       0.13738807       0.10965272       0.00868306 </v>
   <v>       0.38986550       0.13967907       0.00015073 </v>
   <v>       0.63972780       0.10979960      -0.00107223 </v>
   <v>       0.89034728       0.13738807       0.00868306 </v>
   <v>       0.10979960       0.36027220      -0.00107223 </v>
   <v>       0.35947616       0.39031815      -0.00054851 </v>
   <v>       0.60968185       0.35947616      -0.00054851 </v>
   <v>       0.86032093       0.38986550       0.00015073 </v>
   <v>       0.13967907       0.61013450       0.00015073 </v>
   <v>       0.39031815       0.64052384      -0.00054851 </v>
   <v>       0.64052384       0.60968185      -0.00054851 </v>
   <v>       0.89020040       0.63972780      -0.00107223 </v>
   <v>       0.10965272       0.86261193       0.00868306 </v>
   <v>       0.36027220       0.89020040      -0.00107223 </v>
   <v>       0.61013450       0.86032093       0.00015073 </v>
   <v>       0.86261193       0.89034728       0.00868306 </v>
  </varray>
 </structure>
</modeling>
