       N       E                     dE             d eps       ncg     rms          rms(c)
DAV:   1    -0.115192608100E+04   -0.11519E+04   -0.35412E-02 12616   0.433E-01    0.431E-03
RMM:   2    -0.115192608134E+04   -0.33887E-06   -0.21554E-06  4532   0.342E-03    0.302E-03
RMM:   3    -0.115192608149E+04   -0.15082E-06   -0.72904E-07  2581   0.211E-03    0.157E-03
RMM:   4    -0.115192608164E+04   -0.15539E-06   -0.60432E-08  1384   0.162E-03    0.778E-04
RMM:   5    -0.115192608167E+04   -0.26295E-07   -0.29652E-08  1203   0.162E-03    0.267E-04
RMM:   6    -0.115192608167E+04   -0.25902E-08   -0.71797E-09  1102   0.161E-03    0.121E-04
RMM:   7    -0.115192608167E+04   -0.12515E-08   -0.28546E-09  1061   0.161E-03    0.841E-05
RMM:   8    -0.115192608167E+04   -0.55297E-09    0.00000E+00  1003   0.161E-03
   1 F= -.11519261E+04 E0= -.11519261E+04  d E =-.115193E+04  mag=    20.0000
       N       E                     dE             d eps       ncg     rms          rms(c)
DAV:   1    -0.115192765595E+04   -0.15743E-02   -0.90139E-01 12768   0.111E+00    0.491E-01
RMM:   2    -0.115192817020E+04   -0.51424E-03   -0.32779E-02 12304   0.235E-01    0.442E-01
RMM:   3    -0.115192757546E+04    0.59474E-03   -0.17465E-03 12867   0.706E-02    0.247E-01
RMM:   4    -0.115192722356E+04    0.35190E-03   -0.10172E-03 12424   0.352E-02    0.146E-01
RMM:   5    -0.115192717121E+04    0.52346E-04   -0.18603E-04  8414   0.221E-02    0.884E-02
RMM:   6    -0.115192718145E+04   -0.10244E-04   -0.81545E-05  7281   0.108E-02    0.463E-02
RMM:   7    -0.115192718916E+04   -0.77095E-05   -0.29643E-05  7160   0.931E-03    0.378E-02
RMM:   8    -0.115192719549E+04   -0.63227E-05   -0.22764E-05  6902   0.538E-03
   2 F= -.11519272E+04 E0= -.11519272E+04  d E =-.111381E-02  mag=    20.0000
       N       E                     dE             d eps       ncg     rms          rms(c)
DAV:   1    -0.115192793910E+04   -0.74993E-03   -0.12110E-01 13376   0.407E-01    0.179E-01
RMM:   2    -0.115192799648E+04   -0.57387E-04   -0.43729E-03 12290   0.857E-02    0.163E-01
RMM:   3    -0.115192790871E+04    0.87777E-04   -0.16575E-04  8262   0.239E-02    0.941E-02
RMM:   4    -0.115192785802E+04    0.50683E-04   -0.13324E-04  7122   0.152E-02    0.634E-02
RMM:   5    -0.115192784887E+04    0.91508E-05   -0.45852E-05  6718   0.106E-02    0.541E-02
RMM:   6    -0.115192784666E+04    0.22088E-05   -0.21971E-05  6074   0.617E-03    0.162E-02
RMM:   7    -0.115192784494E+04    0.17217E-05   -0.93850E-06  5316   0.464E-03    0.138E-02
RMM:   8    -0.115192784360E+04    0.13470E-05   -0.83494E-06  5101   0.365E-03
   3 F= -.11519278E+04 E0= -.11519278E+04  d E =-.176192E-02  mag=    20.0000
       N       E                     dE             d eps       ncg     rms          rms(c)
DAV:   1    -0.115192802510E+04   -0.18016E-03   -0.54509E-01 12864   0.866E-01    0.223E-01
RMM:   2    -0.115192933772E+04   -0.13126E-02   -0.13879E-02 12342   0.152E-01    0.151E-01
RMM:   3    -0.115192934798E+04   -0.10257E-04   -0.67427E-04 10865   0.494E-02    0.913E-02
RMM:   4    -0.115192929678E+04    0.51197E-04   -0.20427E-04  7680   0.173E-02    0.525E-02
RMM:   5    -0.115192929193E+04    0.48485E-05   -0.53458E-05  7082   0.109E-02    0.495E-02
RMM:   6    -0.115192929414E+04   -0.22105E-05   -0.22707E-05  7020   0.739E-03    0.139E-02
RMM:   7    -0.115192929574E+04   -0.15970E-05   -0.10901E-05  6703   0.505E-03    0.125E-02
RMM:   8    -0.115192929674E+04   -0.10059E-05   -0.64879E-06  6083   0.401E-03
   4 F= -.11519293E+04 E0= -.11519293E+04  d E =-.145315E-02  mag=    20.0000
       N       E                     dE             d eps       ncg     rms          rms(c)
DAV:   1    -0.115192893047E+04    0.36527E-03   -0.28282E-01 12656   0.624E-01    0.161E-01
RMM:   2    -0.115192962280E+04   -0.69233E-03   -0.73072E-03 12362   0.110E-01    0.110E-01
RMM:   3    -0.115192962417E+04   -0.13707E-05   -0.32731E-04  9037   0.347E-02    0.668E-02
RMM:   4    -0.115192959981E+04    0.24360E-04   -0.11244E-04  7146   0.133E-02    0.405E-02
RMM:   5    -0.115192959883E+04    0.98094E-06   -0.37537E-05  7030   0.914E-03    0.440E-02
RMM:   6    -0.115192960045E+04   -0.16198E-05   -0.18699E-05  6949   0.625E-03    0.945E-03
RMM:   7    -0.115192960167E+04   -0.12209E-05   -0.88508E-06  6386   0.448E-03    0.116E-02
RMM:   8    -0.115192960236E+04   -0.69293E-06   -0.55062E-06  5410   0.356E-03
   5 F= -.11519296E+04 E0= -.11519296E+04  d E =-.175876E-02  mag=    20.0000
       N       E                     dE             d eps       ncg     rms          rms(c)
DAV:   1    -0.115192989847E+04   -0.29680E-03   -0.33416E-01 12912   0.672E-01    0.171E-01
RMM:   2    -0.115193066580E+04   -0.76733E-03   -0.83714E-03 12356   0.116E-01    0.111E-01
RMM:   3    -0.115193066316E+04    0.26390E-05   -0.39785E-04  9451   0.386E-02    0.676E-02
RMM:   4    -0.115193064238E+04    0.20780E-04   -0.12481E-04  7112   0.138E-02    0.443E-02
RMM:   5    -0.115193064082E+04    0.15626E-05   -0.35427E-05  6979   0.893E-03    0.377E-02
RMM:   6    -0.115193064153E+04   -0.71521E-06   -0.18339E-05  6865   0.613E-03    0.813E-03
RMM:   7    -0.115193064157E+04   -0.40076E-07   -0.96293E-06  6338   0.462E-03    0.987E-03
RMM:   8    -0.115193064154E+04    0.30603E-07   -0.56381E-06  4930   0.361E-03
   6 F= -.11519306E+04 E0= -.11519306E+04  d E =-.103918E-02  mag=    20.0000
       N       E                     dE             d eps       ncg     rms          rms(c)
DAV:   1    -0.115192956635E+04    0.10752E-02   -0.78802E-01 12608   0.103E+00    0.263E-01
RMM:   2    -0.115193137591E+04   -0.18096E-02   -0.19722E-02 12381   0.177E-01    0.170E-01
RMM:   3    -0.115193137608E+04   -0.16490E-06   -0.99093E-04 11638   0.585E-02    0.103E-01
RMM:   4    -0.115193132747E+04    0.48604E-04   -0.30857E-04  8498   0.198E-02    0.648E-02
RMM:   5    -0.115193131858E+04    0.88894E-05   -0.64528E-05  7120   0.127E-02    0.552E-02
RMM:   6    -0.115193132046E+04   -0.18758E-05   -0.32656E-05  7046   0.796E-03    0.125E-02
RMM:   7    -0.115193132080E+04   -0.34421E-06   -0.15760E-05  6821   0.643E-03    0.134E-02
RMM:   8    -0.115193132113E+04   -0.33154E-06   -0.11280E-05  6342   0.445E-03
   7 F= -.11519313E+04 E0= -.11519313E+04  d E =-.171877E-02  mag=    20.0000
       N       E                     dE             d eps       ncg     rms          rms(c)
DAV:   1    -0.115193144893E+04   -0.12812E-03   -0.44538E-01 12528   0.762E-01    0.158E-01
RMM:   2    -0.115193241273E+04   -0.96380E-03   -0.10852E-02 12414   0.130E-01    0.116E-01
RMM:   3    -0.115193239546E+04    0.17263E-04   -0.49893E-04  9811   0.410E-02    0.739E-02
RMM:   4    -0.115193236800E+04    0.27467E-04   -0.13902E-04  7302   0.140E-02    0.416E-02
RMM:   5    -0.115193236351E+04    0.44826E-05   -0.47964E-05  7033   0.955E-03    0.407E-02
RMM:   6    -0.115193236532E+04   -0.18085E-05   -0.20330E-05  6790   0.687E-03    0.134E-02
RMM:   7    -0.115193236624E+04   -0.91654E-06   -0.11058E-05  6298   0.454E-03    0.113E-02
RMM:   8    -0.115193236671E+04   -0.47158E-06   -0.63584E-06  5578   0.398E-03
   8 F= -.11519324E+04 E0= -.11519324E+04  d E =-.104558E-02  mag=    20.0000
       N       E                     dE             d eps       ncg     rms          rms(c)
DAV:   1    -0.115193121744E+04    0.11488E-02   -0.80936E-01 12600   0.103E+00    0.213E-01
RMM:   2    -0.115193295639E+04   -0.17389E-02   -0.19597E-02 12343   0.174E-01    0.157E-01
RMM:   3    -0.115193293463E+04    0.21765E-04   -0.96118E-04 11363   0.575E-02    0.992E-02
RMM:   4    -0.115193288564E+04    0.48987E-04   -0.27054E-04  8336   0.182E-02    0.576E-02
RMM:   5    -0.115193287361E+04    0.12027E-04   -0.77610E-05  7151   0.123E-02    0.545E-02
RMM:   6    -0.115193287637E+04   -0.27576E-05   -0.30725E-05  6939   0.869E-03    0.169E-02
RMM:   7    -0.115193287774E+04   -0.13731E-05   -0.16169E-05  6664   0.564E-03    0.142E-02
RMM:   8    -0.115193287851E+04   -0.76432E-06   -0.98534E-06  6349   0.498E-03
   9 F= -.11519329E+04 E0= -.11519329E+04  d E =-.155738E-02  mag=    20.0000
       N       E                     dE             d eps       ncg     rms          rms(c)
DAV:   1    -0.115193285451E+04    0.23237E-04   -0.36641E-01 12456   0.686E-01    0.134E-01
RMM:   2    -0.115193367156E+04   -0.81705E-03   -0.87800E-03 12429   0.116E-01    0.935E-02
RMM:   3    -0.115193366182E+04    0.97390E-05   -0.39675E-04  8939   0.370E-02    0.601E-02
RMM:   4    -0.115193364538E+04    0.16446E-04   -0.10354E-04  7104   0.124E-02    0.351E-02
RMM:   5    -0.115193364472E+04    0.65244E-06   -0.38860E-05  6882   0.867E-03    0.384E-02
RMM:   6    -0.115193364664E+04   -0.19132E-05   -0.17639E-05  6658   0.633E-03    0.109E-02
RMM:   7    -0.115193364786E+04   -0.12246E-05   -0.94314E-06  5862   0.418E-03    0.909E-03
RMM:   8    -0.115193364845E+04   -0.58711E-06   -0.55428E-06  5194   0.368E-03
  10 F= -.11519336E+04 E0= -.11519336E+04  d E =-.769939E-03  mag=    20.0000
       N       E                     dE             d eps       ncg     rms          rms(c)
DAV:   1    -0.115193067705E+04    0.29708E-02   -0.17294E+00 12704   0.149E+00    0.291E-01
RMM:   2    -0.115193447217E+04   -0.37951E-02   -0.40870E-02 12335   0.250E-01    0.203E-01
RMM:   3    -0.115193446311E+04    0.90595E-05   -0.20430E-03 11969   0.835E-02    0.128E-01
RMM:   4    -0.115193438703E+04    0.76083E-04   -0.54289E-04 10941   0.250E-02    0.733E-02
RMM:   5    -0.115193437174E+04    0.15291E-04   -0.15460E-04  7532   0.163E-02    0.658E-02
RMM:   6    -0.115193437691E+04   -0.51710E-05   -0.49278E-05  7083   0.110E-02    0.230E-02
RMM:   7    -0.115193438041E+04   -0.35031E-05   -0.27238E-05  6974   0.706E-03    0.157E-02
RMM:   8    -0.115193438221E+04   -0.17910E-05   -0.16637E-05  6815   0.657E-03
  11 F= -.11519344E+04 E0= -.11519344E+04  d E =-.150370E-02  mag=    20.0000
       N       E                     dE             d eps       ncg     rms          rms(c)
DAV:   1    -0.115193431330E+04    0.67117E-04   -0.41603E-01 12416   0.731E-01    0.148E-01
RMM:   2    -0.115193522838E+04   -0.91508E-03   -0.10120E-02 12383   0.125E-01    0.118E-01
RMM:   3    -0.115193521785E+04    0.10531E-04   -0.48836E-04  9781   0.406E-02    0.764E-02
RMM:   4    -0.115193519370E+04    0.24152E-04   -0.14072E-04  7339   0.137E-02    0.425E-02
RMM:   5    -0.115193519025E+04    0.34507E-05   -0.46663E-05  7018   0.920E-03    0.290E-02
RMM:   6    -0.115193519222E+04   -0.19780E-05   -0.17544E-05  6703   0.640E-03    0.114E-02
RMM:   7    -0.115193519330E+04   -0.10721E-05   -0.10353E-05  5848   0.411E-03    0.865E-03
RMM:   8    -0.115193519385E+04   -0.55166E-06   -0.59871E-06  5425   0.394E-03
  12 F= -.11519352E+04 E0= -.11519352E+04  d E =-.811643E-03  mag=    20.0000
