       N       E                     dE             d eps       ncg     rms          rms(c)
DAV:   1    -0.988747248920E+03   -0.98875E+03   -0.23653E-02 13472   0.369E-01    0.927E-02
RMM:   2    -0.988747249179E+03   -0.25873E-06   -0.51169E-05  6955   0.120E-02    0.180E-01
RMM:   3    -0.988747245294E+03    0.38854E-05   -0.16126E-05  6602   0.806E-03    0.429E-02
RMM:   4    -0.988747245023E+03    0.27071E-06   -0.53950E-06  5076   0.295E-03    0.212E-02
RMM:   5    -0.988747245183E+03   -0.16038E-06   -0.10104E-06  3672   0.238E-03    0.106E-02
RMM:   6    -0.988747245486E+03   -0.30271E-06   -0.41212E-07  2691   0.188E-03    0.103E-02
RMM:   7    -0.988747245755E+03   -0.26914E-06   -0.25496E-07  2349   0.182E-03    0.665E-03
RMM:   8    -0.988747246296E+03   -0.54104E-06   -0.70258E-07  2844   0.204E-03
   1 F= -.98874725E+03 E0= -.98874388E+03  d E =-.988747E+03  mag=   114.0000
       N       E                     dE             d eps       ncg     rms          rms(c)
DAV:   1    -0.988741782878E+03    0.54629E-02   -0.22207E+00 12712   0.174E+00    0.823E-01
RMM:   2    -0.988750980000E+03   -0.91971E-02   -0.73337E-02 12591   0.382E-01    0.684E-01
RMM:   3    -0.988751546536E+03   -0.56654E-03   -0.44032E-03 12746   0.106E-01    0.403E-01
RMM:   4    -0.988751170931E+03    0.37560E-03   -0.88569E-04 11309   0.380E-02    0.248E-01
RMM:   5    -0.988751047890E+03    0.12304E-03   -0.77202E-04 11050   0.326E-02    0.680E-02
RMM:   6    -0.988751046568E+03    0.13221E-05   -0.45191E-05  7527   0.132E-02    0.409E-02
RMM:   7    -0.988751045872E+03    0.69586E-06   -0.22620E-05  7353   0.613E-03    0.272E-02
RMM:   8    -0.988751046141E+03   -0.26857E-06   -0.10791E-05  6967   0.570E-03
   2 F= -.98875105E+03 E0= -.98874760E+03  d E =-.379984E-02  mag=   114.0000
       N       E                     dE             d eps       ncg     rms          rms(c)
DAV:   1    -0.988750982340E+03    0.63532E-04   -0.17284E-01 12704   0.487E-01    0.232E-01
RMM:   2    -0.988751688763E+03   -0.70642E-03   -0.56349E-03 12359   0.106E-01    0.193E-01
RMM:   3    -0.988751727276E+03   -0.38513E-04   -0.27202E-04  8968   0.308E-02    0.116E-01
RMM:   4    -0.988751703528E+03    0.23748E-04   -0.66348E-05  7198   0.129E-02    0.729E-02
RMM:   5    -0.988751692433E+03    0.11095E-04   -0.69368E-05  7102   0.100E-02    0.275E-02
RMM:   6    -0.988751693351E+03   -0.91833E-06   -0.10914E-05  6091   0.611E-03    0.152E-02
RMM:   7    -0.988751693359E+03   -0.83528E-08   -0.33579E-06  4591   0.266E-03    0.950E-03
RMM:   8    -0.988751693357E+03    0.28522E-08   -0.13170E-06  3886   0.251E-03
   3 F= -.98875169E+03 E0= -.98874827E+03  d E =-.444706E-02  mag=   114.0000
       N       E                     dE             d eps       ncg     rms          rms(c)
DAV:   1    -0.988749235769E+03    0.24576E-02   -0.17626E+00 12520   0.159E+00    0.584E-01
RMM:   2    -0.988755558787E+03   -0.63230E-02   -0.50776E-02 12649   0.321E-01    0.402E-01
RMM:   3    -0.988756048135E+03   -0.48935E-03   -0.31026E-03 12951   0.913E-02    0.231E-01
RMM:   4    -0.988755896952E+03    0.15118E-03   -0.39055E-04  9795   0.260E-02    0.147E-01
RMM:   5    -0.988755829590E+03    0.67362E-04   -0.31631E-04  9240   0.209E-02    0.550E-02
RMM:   6    -0.988755835386E+03   -0.57958E-05   -0.41159E-05  7315   0.120E-02    0.273E-02
RMM:   7    -0.988755836393E+03   -0.10069E-05   -0.17754E-05  7178   0.602E-03    0.159E-02
RMM:   8    -0.988755836497E+03   -0.10380E-06   -0.91171E-06  6973   0.548E-03
   4 F= -.98875584E+03 E0= -.98875242E+03  d E =-.414314E-02  mag=   114.0000
       N       E                     dE             d eps       ncg     rms          rms(c)
DAV:   1    -0.988754476897E+03    0.13595E-02   -0.53439E-01 12672   0.878E-01    0.322E-01
RMM:   2    -0.988756410279E+03   -0.19334E-02   -0.15553E-02 12637   0.177E-01    0.223E-01
RMM:   3    -0.988756557701E+03   -0.14742E-03   -0.94695E-04 11449   0.505E-02    0.129E-01
RMM:   4    -0.988756512883E+03    0.44818E-04   -0.10901E-04  7530   0.155E-02    0.840E-02
RMM:   5    -0.988756493884E+03    0.18998E-04   -0.95621E-05  7351   0.126E-02    0.365E-02
RMM:   6    -0.988756497091E+03   -0.32069E-05   -0.22781E-05  7168   0.853E-03    0.209E-02
RMM:   7    -0.988756497915E+03   -0.82352E-06   -0.10624E-05  7045   0.497E-03    0.142E-02
RMM:   8    -0.988756498237E+03   -0.32218E-06   -0.54991E-06  6284   0.426E-03
   5 F= -.98875650E+03 E0= -.98875309E+03  d E =-.480488E-02  mag=   114.0000
       N       E                     dE             d eps       ncg     rms          rms(c)
DAV:   1    -0.988756023572E+03    0.47434E-03   -0.11504E+00 12704   0.129E+00    0.414E-01
RMM:   2    -0.988759677939E+03   -0.36544E-02   -0.32082E-02 12800   0.248E-01    0.259E-01
RMM:   3    -0.988759884060E+03   -0.20612E-03   -0.18593E-03 12604   0.712E-02    0.147E-01
RMM:   4    -0.988759801013E+03    0.83047E-04   -0.25459E-04  8395   0.212E-02    0.896E-02
RMM:   5    -0.988759779764E+03    0.21249E-04   -0.13039E-04  7396   0.155E-02    0.469E-02
RMM:   6    -0.988759786420E+03   -0.66557E-05   -0.35069E-05  7220   0.106E-02    0.256E-02
RMM:   7    -0.988759789134E+03   -0.27138E-05   -0.18172E-05  7143   0.621E-03    0.150E-02
RMM:   8    -0.988759791140E+03   -0.20064E-05   -0.10221E-05  6934   0.573E-03
   6 F= -.98875979E+03 E0= -.98875640E+03  d E =-.329290E-02  mag=   114.0000
       N       E                     dE             d eps       ncg     rms          rms(c)
DAV:   1    -0.988746292734E+03    0.13496E-01   -0.49354E+00 12704   0.267E+00    0.858E-01
RMM:   2    -0.988761942240E+03   -0.15650E-01   -0.13757E-01 12782   0.514E-01    0.535E-01
RMM:   3    -0.988762846725E+03   -0.90449E-03   -0.80855E-03 13652   0.148E-01    0.304E-01
RMM:   4    -0.988762506577E+03    0.34015E-03   -0.13104E-03 13493   0.419E-02    0.179E-01
RMM:   5    -0.988762411578E+03    0.94999E-04   -0.60122E-04 11048   0.263E-02    0.792E-02
RMM:   6    -0.988762424012E+03   -0.12434E-04   -0.75519E-05  7434   0.141E-02    0.378E-02
RMM:   7    -0.988762430262E+03   -0.62503E-05   -0.39063E-05  7312   0.896E-03    0.209E-02
RMM:   8    -0.988762435433E+03   -0.51717E-05   -0.23791E-05  7190   0.784E-03
   7 F= -.98876244E+03 E0= -.98875909E+03  d E =-.593720E-02  mag=   114.0000
       N       E                     dE             d eps       ncg     rms          rms(c)
DAV:   1    -0.988758128564E+03    0.43017E-02   -0.19308E+00 12720   0.165E+00    0.545E-01
RMM:   2    -0.988764750421E+03   -0.66219E-02   -0.53342E-02 12684   0.319E-01    0.346E-01
RMM:   3    -0.988765238984E+03   -0.48856E-03   -0.32464E-03 12967   0.936E-02    0.194E-01
RMM:   4    -0.988765117741E+03    0.12124E-03   -0.45218E-04 10781   0.264E-02    0.127E-01
RMM:   5    -0.988765067947E+03    0.49795E-04   -0.28041E-04  8701   0.193E-02    0.531E-02
RMM:   6    -0.988765077368E+03   -0.94216E-05   -0.49785E-05  7321   0.119E-02    0.278E-02
RMM:   7    -0.988765080744E+03   -0.33759E-05   -0.23011E-05  7225   0.722E-03    0.167E-02
RMM:   8    -0.988765083260E+03   -0.25163E-05   -0.13758E-05  7121   0.612E-03
   8 F= -.98876508E+03 E0= -.98876179E+03  d E =-.264783E-02  mag=   114.0000
       N       E                     dE             d eps       ncg     rms          rms(c)
DAV:   1    -0.988763712429E+03    0.13683E-02   -0.47833E-01 12880   0.823E-01    0.272E-01
RMM:   2    -0.988765363153E+03   -0.16507E-02   -0.13303E-02 12696   0.159E-01    0.173E-01
RMM:   3    -0.988765478506E+03   -0.11535E-03   -0.76002E-04 10769   0.467E-02    0.977E-02
RMM:   4    -0.988765451169E+03    0.27337E-04   -0.10210E-04  7461   0.151E-02    0.657E-02
RMM:   5    -0.988765441688E+03    0.94811E-05   -0.71622E-05  7269   0.114E-02    0.326E-02
RMM:   6    -0.988765446215E+03   -0.45268E-05   -0.22148E-05  7154   0.788E-03    0.175E-02
RMM:   7    -0.988765447870E+03   -0.16556E-05   -0.10888E-05  6985   0.493E-03    0.118E-02
RMM:   8    -0.988765449094E+03   -0.12244E-05   -0.60018E-06  6021   0.418E-03
   9 F= -.98876545E+03 E0= -.98876218E+03  d E =-.301366E-02  mag=   114.0000
       N       E                     dE             d eps       ncg     rms          rms(c)
DAV:   1    -0.988764495967E+03    0.95190E-03   -0.80520E-01 12672   0.106E+00    0.350E-01
RMM:   2    -0.988767244089E+03   -0.27481E-02   -0.21739E-02 12656   0.205E-01    0.235E-01
RMM:   3    -0.988767458432E+03   -0.21434E-03   -0.13135E-03 12023   0.594E-02    0.125E-01
RMM:   4    -0.988767406928E+03    0.51504E-04   -0.13527E-04  7718   0.166E-02    0.851E-02
RMM:   5    -0.988767378627E+03    0.28301E-04   -0.11209E-04  7341   0.137E-02    0.404E-02
RMM:   6    -0.988767383199E+03   -0.45721E-05   -0.32125E-05  7177   0.913E-03    0.249E-02
RMM:   7    -0.988767384361E+03   -0.11618E-05   -0.12661E-05  7061   0.573E-03    0.163E-02
RMM:   8    -0.988767384694E+03   -0.33333E-06   -0.67557E-06  6296   0.423E-03
  10 F= -.98876738E+03 E0= -.98876416E+03  d E =-.193560E-02  mag=   114.0000
       N       E                     dE             d eps       ncg     rms          rms(c)
DAV:   1    -0.988760873461E+03    0.65109E-02   -0.21377E+00 12608   0.173E+00    0.571E-01
RMM:   2    -0.988768173199E+03   -0.72997E-02   -0.57714E-02 12656   0.334E-01    0.382E-01
RMM:   3    -0.988768748345E+03   -0.57515E-03   -0.35135E-03 12964   0.968E-02    0.202E-01
RMM:   4    -0.988768616469E+03    0.13188E-03   -0.43636E-04 10492   0.264E-02    0.135E-01
RMM:   5    -0.988768541609E+03    0.74859E-04   -0.33068E-04  9269   0.203E-02    0.609E-02
RMM:   6    -0.988768548332E+03   -0.67223E-05   -0.54553E-05  7324   0.124E-02    0.318E-02
RMM:   7    -0.988768549816E+03   -0.14840E-05   -0.20328E-05  7227   0.716E-03    0.178E-02
RMM:   8    -0.988768550187E+03   -0.37169E-06   -0.11689E-05  7027   0.554E-03
  11 F= -.98876855E+03 E0= -.98876540E+03  d E =-.310109E-02  mag=   114.0000
       N       E                     dE             d eps       ncg     rms          rms(c)
DAV:   1    -0.988768137163E+03    0.41265E-03   -0.50736E-01 12736   0.842E-01    0.253E-01
RMM:   2    -0.988769771231E+03   -0.16341E-02   -0.13511E-02 12718   0.159E-01    0.147E-01
RMM:   3    -0.988769876589E+03   -0.10536E-03   -0.75032E-04 10505   0.460E-02    0.787E-02
RMM:   4    -0.988769848932E+03    0.27657E-04   -0.97417E-05  7338   0.148E-02    0.490E-02
RMM:   5    -0.988769840655E+03    0.82767E-05   -0.60913E-05  7203   0.106E-02    0.282E-02
RMM:   6    -0.988769843785E+03   -0.31301E-05   -0.19307E-05  7010   0.734E-03    0.129E-02
RMM:   7    -0.988769845104E+03   -0.13184E-05   -0.92886E-06  6642   0.455E-03    0.872E-03
RMM:   8    -0.988769845976E+03   -0.87205E-06   -0.50736E-06  5812   0.386E-03
  12 F= -.98876985E+03 E0= -.98876672E+03  d E =-.129579E-02  mag=   114.0000
       N       E                     dE             d eps       ncg     rms          rms(c)
DAV:   1    -0.988756707745E+03    0.13137E-01   -0.45645E+00 12640   0.252E+00    0.757E-01
RMM:   2    -0.988771276736E+03   -0.14569E-01   -0.12044E-01 12695   0.477E-01    0.440E-01
RMM:   3    -0.988772275189E+03   -0.99845E-03   -0.71437E-03 13301   0.138E-01    0.237E-01
RMM:   4    -0.988771999763E+03    0.27543E-03   -0.96174E-04 12671   0.366E-02    0.143E-01
RMM:   5    -0.988771897607E+03    0.10216E-03   -0.54736E-04 10385   0.248E-02    0.646E-02
RMM:   6    -0.988771904984E+03   -0.73777E-05   -0.65867E-05  7394   0.142E-02    0.332E-02
RMM:   7    -0.988771909112E+03   -0.41273E-05   -0.31827E-05  7278   0.766E-03    0.179E-02
RMM:   8    -0.988771911541E+03   -0.24297E-05   -0.17864E-05  7185   0.730E-03
  13 F= -.98877191E+03 E0= -.98876886E+03  d E =-.336135E-02  mag=   114.0000
       N       E                     dE             d eps       ncg     rms          rms(c)
DAV:   1    -0.988771335405E+03    0.57371E-03   -0.19075E-01 13080   0.516E-01    0.155E-01
RMM:   2    -0.988771958939E+03   -0.62353E-03   -0.51605E-03 12571   0.983E-02    0.902E-02
RMM:   3    -0.988771994635E+03   -0.35696E-04   -0.25442E-04  8679   0.295E-02    0.491E-02
RMM:   4    -0.988771988525E+03    0.61097E-05   -0.50949E-05  7202   0.112E-02    0.309E-02
RMM:   5    -0.988771987272E+03    0.12533E-05   -0.29746E-05  7059   0.768E-03    0.163E-02
RMM:   6    -0.988771989473E+03   -0.22011E-05   -0.11686E-05  6835   0.516E-03    0.861E-03
RMM:   7    -0.988771990405E+03   -0.93167E-06   -0.55615E-06  5941   0.382E-03    0.550E-03
RMM:   8    -0.988771991157E+03   -0.75263E-06   -0.29473E-06  4542   0.286E-03
  14 F= -.98877199E+03 E0= -.98876896E+03  d E =-.344097E-02  mag=   114.0000
       N       E                     dE             d eps       ncg     rms          rms(c)
DAV:   1    -0.988770684566E+03    0.13058E-02   -0.72272E-01 12480   0.992E-01    0.346E-01
RMM:   2    -0.988773251447E+03   -0.25669E-02   -0.18947E-02 12673   0.189E-01    0.218E-01
RMM:   3    -0.988773470250E+03   -0.21880E-03   -0.11130E-03 11658   0.548E-02    0.113E-01
RMM:   4    -0.988773425314E+03    0.44937E-04   -0.11494E-04  7625   0.154E-02    0.758E-02
RMM:   5    -0.988773400309E+03    0.25005E-04   -0.87198E-05  7273   0.122E-02    0.416E-02
RMM:   6    -0.988773404341E+03   -0.40324E-05   -0.30080E-05  7136   0.848E-03    0.202E-02
RMM:   7    -0.988773405649E+03   -0.13078E-05   -0.10920E-05  6927   0.532E-03    0.155E-02
RMM:   8    -0.988773406303E+03   -0.65364E-06   -0.53340E-06  5891   0.374E-03
  15 F= -.98877341E+03 E0= -.98877040E+03  d E =-.141515E-02  mag=   114.0000
       N       E                     dE             d eps       ncg     rms          rms(c)
DAV:   1    -0.988769611722E+03    0.37939E-02   -0.11922E+00 12408   0.127E+00    0.445E-01
RMM:   2    -0.988773856819E+03   -0.42451E-02   -0.31344E-02 12684   0.243E-01    0.281E-01
RMM:   3    -0.988774219740E+03   -0.36292E-03   -0.18596E-03 12642   0.706E-02    0.145E-01
RMM:   4    -0.988774144325E+03    0.75415E-04   -0.19355E-04  8334   0.193E-02    0.967E-02
RMM:   5    -0.988774102743E+03    0.41582E-04   -0.14280E-04  7404   0.154E-02    0.528E-02
RMM:   6    -0.988774108766E+03   -0.60237E-05   -0.46459E-05  7218   0.107E-02    0.260E-02
RMM:   7    -0.988774110823E+03   -0.20566E-05   -0.16756E-05  7084   0.653E-03    0.186E-02
RMM:   8    -0.988774111681E+03   -0.85816E-06   -0.87228E-06  6597   0.467E-03
  16 F= -.98877411E+03 E0= -.98877114E+03  d E =-.212052E-02  mag=   114.0000
       N       E                     dE             d eps       ncg     rms          rms(c)
DAV:   1    -0.988772690122E+03    0.14207E-02   -0.73443E-01 12544   0.998E-01    0.331E-01
RMM:   2    -0.988775247342E+03   -0.25572E-02   -0.19202E-02 12731   0.188E-01    0.196E-01
RMM:   3    -0.988775446430E+03   -0.19909E-03   -0.10682E-03 11474   0.539E-02    0.995E-02
RMM:   4    -0.988775403291E+03    0.43138E-04   -0.11964E-04  7622   0.157E-02    0.632E-02
RMM:   5    -0.988775383856E+03    0.19435E-04   -0.86074E-05  7268   0.120E-02    0.309E-02
RMM:   6    -0.988775387118E+03   -0.32620E-05   -0.22946E-05  7129   0.787E-03    0.185E-02
RMM:   7    -0.988775388261E+03   -0.11429E-05   -0.10207E-05  6941   0.478E-03    0.133E-02
RMM:   8    -0.988775388643E+03   -0.38222E-06   -0.50785E-06  5691   0.383E-03
  17 F= -.98877539E+03 E0= -.98877243E+03  d E =-.127696E-02  mag=   114.0000
       N       E                     dE             d eps       ncg     rms          rms(c)
DAV:   1    -0.988770643103E+03    0.47452E-02   -0.14893E+00 12496   0.142E+00    0.471E-01
RMM:   2    -0.988775813318E+03   -0.51702E-02   -0.38806E-02 12712   0.268E-01    0.279E-01
RMM:   3    -0.988776221339E+03   -0.40802E-03   -0.21961E-03 12699   0.767E-02    0.141E-01
RMM:   4    -0.988776130158E+03    0.91182E-04   -0.26120E-04  8748   0.212E-02    0.879E-02
RMM:   5    -0.988776089473E+03    0.40684E-04   -0.17028E-04  7485   0.166E-02    0.440E-02
RMM:   6    -0.988776094492E+03   -0.50188E-05   -0.39812E-05  7230   0.108E-02    0.320E-02
RMM:   7    -0.988776096340E+03   -0.18483E-05   -0.16820E-05  7125   0.628E-03    0.155E-02
RMM:   8    -0.988776096898E+03   -0.55759E-06   -0.89042E-06  6785   0.505E-03
  18 F= -.98877610E+03 E0= -.98877316E+03  d E =-.198522E-02  mag=   114.0000
       N       E                     dE             d eps       ncg     rms          rms(c)
DAV:   1    -0.988774167670E+03    0.19287E-02   -0.86905E-01 12768   0.108E+00    0.340E-01
RMM:   2    -0.988776978535E+03   -0.28109E-02   -0.22605E-02 12759   0.202E-01    0.207E-01
RMM:   3    -0.988777158377E+03   -0.17984E-03   -0.12700E-03 11689   0.577E-02    0.112E-01
RMM:   4    -0.988777102702E+03    0.55675E-04   -0.14342E-04  7744   0.167E-02    0.713E-02
RMM:   5    -0.988777080172E+03    0.22530E-04   -0.99184E-05  7330   0.127E-02    0.394E-02
RMM:   6    -0.988777085303E+03   -0.51301E-05   -0.28162E-05  7188   0.863E-03    0.203E-02
RMM:   7    -0.988777087265E+03   -0.19629E-05   -0.12590E-05  7119   0.521E-03    0.143E-02
RMM:   8    -0.988777088378E+03   -0.11128E-05   -0.64460E-06  6304   0.425E-03
  19 F= -.98877709E+03 E0= -.98877414E+03  d E =-.991480E-03  mag=   114.0000
