       N       E                     dE             d eps       ncg     rms          rms(c)
DAV:   1    -0.105799088040E+04   -0.10580E+04   -0.24121E-01  6904   0.113E+00    0.344E-02
RMM:   2    -0.105799089879E+04   -0.18387E-04   -0.20505E-04  4153   0.234E-02    0.377E-02
RMM:   3    -0.105799090321E+04   -0.44210E-05   -0.66129E-05  3828   0.127E-02    0.178E-02
RMM:   4    -0.105799091413E+04   -0.10921E-04   -0.63335E-05  3709   0.857E-03    0.223E-02
RMM:   5    -0.105799091847E+04   -0.43408E-05   -0.34049E-05  3490   0.750E-03    0.104E-02
RMM:   6    -0.105799092163E+04   -0.31539E-05   -0.27052E-05  3204   0.559E-03    0.814E-03
RMM:   7    -0.105799092317E+04   -0.15450E-05   -0.17864E-05  2987   0.513E-03    0.571E-03
RMM:   8    -0.105799092428E+04   -0.11051E-05   -0.12753E-05  2456   0.405E-03
   1 F= -.10579909E+04 E0= -.10579909E+04  d E =-.105799E+04  mag=    80.0000
       N       E                     dE             d eps       ncg     rms          rms(c)
DAV:   1    -0.105858847005E+04   -0.59755E+00   -0.66833E+01  6376   0.105E+01    0.840E+00
RMM:   2    -0.105823929265E+04    0.34918E+00   -0.35179E+00  6272   0.245E+00    0.715E+00
RMM:   3    -0.105812089447E+04    0.11840E+00   -0.27939E-01  6454   0.857E-01    0.322E+00
RMM:   4    -0.105807204497E+04    0.48849E-01   -0.13750E-01  6538   0.429E-01    0.216E+00
RMM:   5    -0.105806533679E+04    0.67082E-02   -0.41546E-02  6831   0.242E-01    0.133E+00
RMM:   6    -0.105806596288E+04   -0.62610E-03   -0.99389E-03  8858   0.974E-02    0.681E-01
RMM:   7    -0.105806635030E+04   -0.38741E-03   -0.45299E-03  8659   0.609E-02    0.366E-01
RMM:   8    -0.105806641132E+04   -0.61027E-04   -0.15667E-03  8289   0.369E-02    0.137E-01
RMM:   9    -0.105806638940E+04    0.21928E-04   -0.52968E-04  6519   0.216E-02
   2 F= -.10580664E+04 E0= -.10580664E+04  d E =-.754651E-01  mag=    80.0000
       N       E                     dE             d eps       ncg     rms          rms(c)
DAV:   1    -0.105819652009E+04   -0.13011E+00   -0.10056E+01  6592   0.405E+00    0.324E+00
RMM:   2    -0.105814166751E+04    0.54853E-01   -0.54196E-01  6255   0.952E-01    0.267E+00
RMM:   3    -0.105812237916E+04    0.19288E-01   -0.42545E-02  6434   0.340E-01    0.121E+00
RMM:   4    -0.105811537019E+04    0.70090E-02   -0.22324E-02  6567   0.168E-01    0.794E-01
RMM:   5    -0.105811476835E+04    0.60183E-03   -0.59465E-03  6701   0.934E-02    0.487E-01
RMM:   6    -0.105811493296E+04   -0.16461E-03   -0.15418E-03  7378   0.379E-02    0.246E-01
RMM:   7    -0.105811505858E+04   -0.12562E-03   -0.59490E-04  5716   0.255E-02    0.141E-01
RMM:   8    -0.105811513229E+04   -0.73717E-04   -0.20423E-04  4296   0.173E-02
   3 F= -.10581151E+04 E0= -.10581151E+04  d E =-.124208E+00  mag=    80.0000
       N       E                     dE             d eps       ncg     rms          rms(c)
DAV:   1    -0.105813952504E+04   -0.24466E-01   -0.15310E+01  6160   0.475E+00    0.173E+00
RMM:   2    -0.105816947690E+04   -0.29952E-01   -0.45528E-01  6268   0.954E-01    0.125E+00
RMM:   3    -0.105816763549E+04    0.18414E-02   -0.27703E-02  6815   0.280E-01    0.790E-01
RMM:   4    -0.105816426450E+04    0.33710E-02   -0.74039E-03  6803   0.101E-01    0.364E-01
RMM:   5    -0.105816377448E+04    0.49002E-03   -0.22132E-03  6747   0.552E-02    0.987E-02
RMM:   6    -0.105816379708E+04   -0.22602E-04   -0.29169E-04  4701   0.205E-02    0.704E-02
RMM:   7    -0.105816380436E+04   -0.72853E-05   -0.12789E-04  4033   0.126E-02    0.420E-02
RMM:   8    -0.105816381011E+04   -0.57451E-05   -0.77012E-05  3781   0.101E-02
   4 F= -.10581638E+04 E0= -.10581638E+04  d E =-.486778E-01  mag=    80.0000
       N       E                     dE             d eps       ncg     rms          rms(c)
DAV:   1    -0.105816344365E+04    0.36071E-03   -0.29774E+00  6208   0.209E+00    0.754E-01
RMM:   2    -0.105816934281E+04   -0.58992E-02   -0.89128E-02  6268   0.421E-01    0.549E-01
RMM:   3    -0.105816899660E+04    0.34621E-03   -0.55561E-03  6835   0.124E-01    0.349E-01
RMM:   4    -0.105816835860E+04    0.63801E-03   -0.15416E-03  6729   0.447E-02    0.165E-01
RMM:   5    -0.105816825414E+04    0.10446E-03   -0.44811E-04  5324   0.253E-02    0.450E-02
RMM:   6    -0.105816825947E+04   -0.53283E-05   -0.68504E-05  3740   0.117E-02    0.373E-02
RMM:   7    -0.105816826161E+04   -0.21404E-05   -0.32011E-05  3669   0.810E-03    0.196E-02
RMM:   8    -0.105816826288E+04   -0.12695E-05   -0.21389E-05  3577   0.619E-03
   5 F= -.10581683E+04 E0= -.10581683E+04  d E =-.531306E-01  mag=    80.0000
       N       E                     dE             d eps       ncg     rms          rms(c)
DAV:   1    -0.105814898615E+04    0.19275E-01   -0.13731E+01  6320   0.448E+00    0.172E+00
RMM:   2    -0.105819133652E+04   -0.42350E-01   -0.40119E-01  6282   0.882E-01    0.117E+00
RMM:   3    -0.105819376256E+04   -0.24260E-02   -0.23035E-02  6845   0.261E-01    0.721E-01
RMM:   4    -0.105819229734E+04    0.14652E-02   -0.59018E-03  7276   0.888E-02    0.383E-01
RMM:   5    -0.105819200679E+04    0.29055E-03   -0.24802E-03  7053   0.507E-02    0.173E-01
RMM:   6    -0.105819199983E+04    0.69601E-05   -0.34776E-04  4962   0.234E-02    0.113E-01
RMM:   7    -0.105819200908E+04   -0.92484E-05   -0.13098E-04  4008   0.131E-02    0.472E-02
RMM:   8    -0.105819202379E+04   -0.14716E-04   -0.85469E-05  3754   0.122E-02
   6 F= -.10581920E+04 E0= -.10581920E+04  d E =-.237609E-01  mag=    80.0000
       N       E                     dE             d eps       ncg     rms          rms(c)
DAV:   1    -0.105819132820E+04    0.68088E-03   -0.35728E-01  6704   0.725E-01    0.273E-01
RMM:   2    -0.105819246698E+04   -0.11388E-02   -0.10640E-02  6294   0.142E-01    0.185E-01
RMM:   3    -0.105819252462E+04   -0.57641E-04   -0.56473E-04  5256   0.428E-02    0.118E-01
RMM:   4    -0.105819249007E+04    0.34552E-04   -0.14464E-04  3714   0.162E-02    0.643E-02
RMM:   5    -0.105819248734E+04    0.27349E-05   -0.66711E-05  3650   0.113E-02    0.256E-02
RMM:   6    -0.105819249078E+04   -0.34437E-05   -0.22608E-05  3568   0.777E-03    0.208E-02
RMM:   7    -0.105819249265E+04   -0.18712E-05   -0.13225E-05  3276   0.491E-03    0.834E-03
RMM:   8    -0.105819249457E+04   -0.19182E-05   -0.82788E-06  3279   0.452E-03
   7 F= -.10581925E+04 E0= -.10581925E+04  d E =-.242317E-01  mag=    80.0000
       N       E                     dE             d eps       ncg     rms          rms(c)
DAV:   1    -0.105818627285E+04    0.62198E-02   -0.86877E+00  6192   0.353E+00    0.113E+00
RMM:   2    -0.105820991573E+04   -0.23643E-01   -0.23688E-01  6277   0.687E-01    0.768E-01
RMM:   3    -0.105821118805E+04   -0.12723E-02   -0.14566E-02  6835   0.196E-01    0.425E-01
RMM:   4    -0.105821018932E+04    0.99873E-03   -0.23216E-03  7608   0.577E-02    0.249E-01
RMM:   5    -0.105820980181E+04    0.38751E-03   -0.17388E-03  6442   0.417E-02    0.650E-02
RMM:   6    -0.105820980171E+04    0.95126E-07   -0.12058E-04  3826   0.198E-02    0.483E-02
RMM:   7    -0.105820980683E+04   -0.51184E-05   -0.57485E-05  3682   0.915E-03    0.291E-02
RMM:   8    -0.105820980958E+04   -0.27520E-05   -0.34577E-05  3631   0.853E-03
   8 F= -.10582098E+04 E0= -.10582098E+04  d E =-.173150E-01  mag=    80.0000
       N       E                     dE             d eps       ncg     rms          rms(c)
DAV:   1    -0.105819582150E+04    0.13985E-01   -0.70856E+00  6192   0.319E+00    0.101E+00
RMM:   2    -0.105821518134E+04   -0.19360E-01   -0.19393E-01  6275   0.622E-01    0.691E-01
RMM:   3    -0.105821621859E+04   -0.10372E-02   -0.12037E-02  6852   0.178E-01    0.385E-01
RMM:   4    -0.105821540366E+04    0.81493E-03   -0.19401E-03  7501   0.522E-02    0.227E-01
RMM:   5    -0.105821508463E+04    0.31903E-03   -0.14476E-03  6418   0.381E-02    0.585E-02
RMM:   6    -0.105821508529E+04   -0.65874E-06   -0.10514E-04  3813   0.181E-02    0.437E-02
RMM:   7    -0.105821508994E+04   -0.46506E-05   -0.51828E-05  3683   0.853E-03    0.268E-02
RMM:   8    -0.105821509234E+04   -0.23998E-05   -0.30613E-05  3615   0.816E-03
   9 F= -.10582151E+04 E0= -.10582151E+04  d E =-.225978E-01  mag=    80.0000
       N       E                     dE             d eps       ncg     rms          rms(c)
DAV:   1    -0.105821475784E+04    0.33210E-03   -0.51059E+00  6192   0.270E+00    0.802E-01
RMM:   2    -0.105822781274E+04   -0.13055E-01   -0.13780E-01  6268   0.512E-01    0.486E-01
RMM:   3    -0.105822830407E+04   -0.49132E-03   -0.84497E-03  6774   0.155E-01    0.300E-01
RMM:   4    -0.105822781119E+04    0.49288E-03   -0.14486E-03  7123   0.452E-02    0.180E-01
RMM:   5    -0.105822762064E+04    0.19055E-03   -0.72522E-04  5885   0.284E-02    0.596E-02
RMM:   6    -0.105822762004E+04    0.60546E-06   -0.74225E-05  3716   0.135E-02    0.426E-02
RMM:   7    -0.105822762239E+04   -0.23508E-05   -0.36061E-05  3624   0.807E-03    0.264E-02
RMM:   8    -0.105822762160E+04    0.78927E-06   -0.21330E-05  3564   0.698E-03
  10 F= -.10582276E+04 E0= -.10582276E+04  d E =-.125293E-01  mag=    80.0000
       N       E                     dE             d eps       ncg     rms          rms(c)
DAV:   1    -0.105819804794E+04    0.29574E-01   -0.14709E+01  6144   0.458E+00    0.135E+00
RMM:   2    -0.105823561870E+04   -0.37571E-01   -0.39544E-01  6257   0.869E-01    0.821E-01
RMM:   3    -0.105823710274E+04   -0.14840E-02   -0.24417E-02  6785   0.264E-01    0.508E-01
RMM:   4    -0.105823569363E+04    0.14091E-02   -0.41149E-03  7778   0.767E-02    0.305E-01
RMM:   5    -0.105823516348E+04    0.53015E-03   -0.20827E-03  6567   0.456E-02    0.100E-01
RMM:   6    -0.105823516134E+04    0.21383E-05   -0.20188E-04  4356   0.212E-02    0.669E-02
RMM:   7    -0.105823516683E+04   -0.54933E-05   -0.78091E-05  3747   0.115E-02    0.379E-02
RMM:   8    -0.105823516718E+04   -0.34536E-06   -0.63702E-05  3725   0.107E-02
  11 F= -.10582352E+04 E0= -.10582352E+04  d E =-.200748E-01  mag=    80.0000
       N       E                     dE             d eps       ncg     rms          rms(c)
DAV:   1    -0.105822223148E+04    0.12935E-01   -0.89634E+00  6272   0.352E+00    0.894E-01
RMM:   2    -0.105824674248E+04   -0.24511E-01   -0.23085E-01  6310   0.645E-01    0.543E-01
RMM:   3    -0.105824773194E+04   -0.98946E-03   -0.12896E-02  6708   0.191E-01    0.295E-01
RMM:   4    -0.105824721676E+04    0.51518E-03   -0.20509E-03  7415   0.525E-02    0.180E-01
RMM:   5    -0.105824704024E+04    0.17652E-03   -0.11168E-03  6163   0.319E-02    0.582E-02
RMM:   6    -0.105824704839E+04   -0.81469E-05   -0.10858E-04  3780   0.153E-02    0.304E-02
RMM:   7    -0.105824705161E+04   -0.32226E-05   -0.48240E-05  3629   0.882E-03    0.225E-02
RMM:   8    -0.105824705448E+04   -0.28674E-05   -0.35643E-05  3568   0.831E-03
  12 F= -.10582471E+04 E0= -.10582471E+04  d E =-.118873E-01  mag=    80.0000
       N       E                     dE             d eps       ncg     rms          rms(c)
DAV:   1    -0.105807946837E+04    0.16758E+00   -0.65385E+01  6240   0.952E+00    0.242E+00
RMM:   2    -0.105825826322E+04   -0.17879E+00   -0.16907E+00  6303   0.175E+00    0.148E+00
RMM:   3    -0.105826556698E+04   -0.73038E-02   -0.94266E-02  6751   0.520E-01    0.801E-01
RMM:   4    -0.105826182451E+04    0.37425E-02   -0.14460E-02  8149   0.142E-01    0.495E-01
RMM:   5    -0.105826050266E+04    0.13218E-02   -0.78346E-03  7162   0.830E-02    0.170E-01
RMM:   6    -0.105826059370E+04   -0.91042E-04   -0.99271E-04  7038   0.386E-02    0.784E-02
RMM:   7    -0.105826060880E+04   -0.15096E-04   -0.36875E-04  4852   0.160E-02    0.481E-02
RMM:   8    -0.105826061879E+04   -0.99879E-05   -0.20511E-04  4177   0.140E-02
  13 F= -.10582606E+04 E0= -.10582606E+04  d E =-.254516E-01  mag=    80.0000
       N       E                     dE             d eps       ncg     rms          rms(c)
DAV:   1    -0.105821732627E+04    0.43283E-01   -0.21895E+01  6144   0.549E+00    0.156E+00
RMM:   2    -0.105827722014E+04   -0.59894E-01   -0.56186E-01  6304   0.101E+00    0.988E-01
RMM:   3    -0.105827986971E+04   -0.26496E-02   -0.31455E-02  6790   0.297E-01    0.571E-01
RMM:   4    -0.105827838297E+04    0.14867E-02   -0.48628E-03  8014   0.816E-02    0.347E-01
RMM:   5    -0.105827773327E+04    0.64971E-03   -0.31872E-03  6621   0.545E-02    0.968E-02
RMM:   6    -0.105827775965E+04   -0.26384E-04   -0.28104E-04  4755   0.247E-02    0.524E-02
RMM:   7    -0.105827776601E+04   -0.63561E-05   -0.11334E-04  3895   0.113E-02    0.321E-02
RMM:   8    -0.105827776729E+04   -0.12866E-05   -0.80606E-05  3779   0.103E-02
  14 F= -.10582778E+04 E0= -.10582778E+04  d E =-.171485E-01  mag=    80.0000
       N       E                     dE             d eps       ncg     rms          rms(c)
DAV:   1    -0.105826091846E+04    0.16848E-01   -0.72381E+00  6224   0.315E+00    0.894E-01
RMM:   2    -0.105828075174E+04   -0.19833E-01   -0.18633E-01  6310   0.584E-01    0.564E-01
RMM:   3    -0.105828161767E+04   -0.86594E-03   -0.10414E-02  6729   0.170E-01    0.329E-01
RMM:   4    -0.105828112980E+04    0.48787E-03   -0.16096E-03  7265   0.466E-02    0.201E-01
RMM:   5    -0.105828090820E+04    0.22160E-03   -0.10823E-03  6089   0.329E-02    0.554E-02
RMM:   6    -0.105828091580E+04   -0.75969E-05   -0.93082E-05  3760   0.157E-02    0.323E-02
RMM:   7    -0.105828091808E+04   -0.22873E-05   -0.45892E-05  3636   0.790E-03    0.212E-02
RMM:   8    -0.105828091775E+04    0.33402E-06   -0.27277E-05  3579   0.751E-03
  15 F= -.10582809E+04 E0= -.10582809E+04  d E =-.202990E-01  mag=    80.0000
       N       E                     dE             d eps       ncg     rms          rms(c)
DAV:   1    -0.105823050797E+04    0.50410E-01   -0.19616E+01  6168   0.520E+00    0.162E+00
RMM:   2    -0.105829158171E+04   -0.61074E-01   -0.50056E-01  6345   0.952E-01    0.968E-01
RMM:   3    -0.105829560388E+04   -0.40222E-02   -0.27082E-02  6706   0.278E-01    0.526E-01
RMM:   4    -0.105829429458E+04    0.13093E-02   -0.47737E-03  7785   0.809E-02    0.303E-01
RMM:   5    -0.105829388389E+04    0.41069E-03   -0.25928E-03  6651   0.485E-02    0.951E-02
RMM:   6    -0.105829389177E+04   -0.78835E-05   -0.23669E-04  4547   0.220E-02    0.509E-02
RMM:   7    -0.105829389451E+04   -0.27424E-05   -0.88953E-05  3821   0.113E-02    0.315E-02
RMM:   8    -0.105829389389E+04    0.62409E-06   -0.82033E-05  3809   0.107E-02
  16 F= -.10582939E+04 E0= -.10582939E+04  d E =-.129761E-01  mag=    80.0000
       N       E                     dE             d eps       ncg     rms          rms(c)
DAV:   1    -0.105829219435E+04    0.17002E-02   -0.70267E-01  6488   0.985E-01    0.305E-01
RMM:   2    -0.105829442572E+04   -0.22314E-02   -0.18366E-02  6382   0.181E-01    0.183E-01
RMM:   3    -0.105829455668E+04   -0.13096E-03   -0.99081E-04  5816   0.525E-02    0.100E-01
RMM:   4    -0.105829450832E+04    0.48353E-04   -0.15778E-04  3836   0.168E-02    0.588E-02
RMM:   5    -0.105829449426E+04    0.14064E-04   -0.96730E-05  3634   0.124E-02    0.264E-02
RMM:   6    -0.105829449749E+04   -0.32272E-05   -0.26971E-05  3559   0.821E-03    0.169E-02
RMM:   7    -0.105829449855E+04   -0.10646E-05   -0.14831E-05  3383   0.498E-03    0.108E-02
RMM:   8    -0.105829449891E+04   -0.35467E-06   -0.87820E-06  3141   0.475E-03
  17 F= -.10582945E+04 E0= -.10582945E+04  d E =-.135812E-01  mag=    80.0000
       N       E                     dE             d eps       ncg     rms          rms(c)
DAV:   1    -0.105826813986E+04    0.26359E-01   -0.13621E+01  6176   0.436E+00    0.123E+00
RMM:   2    -0.105830303829E+04   -0.34898E-01   -0.36271E-01  6309   0.817E-01    0.881E-01
RMM:   3    -0.105830350724E+04   -0.46896E-03   -0.19907E-02  6717   0.239E-01    0.497E-01
RMM:   4    -0.105830233934E+04    0.11679E-02   -0.38191E-03  7420   0.695E-02    0.284E-01
RMM:   5    -0.105830200029E+04    0.33905E-03   -0.18309E-03  6578   0.411E-02    0.912E-02
RMM:   6    -0.105830200690E+04   -0.66098E-05   -0.15802E-04  4186   0.186E-02    0.544E-02
RMM:   7    -0.105830201383E+04   -0.69325E-05   -0.75744E-05  3706   0.106E-02    0.351E-02
RMM:   8    -0.105830202133E+04   -0.74912E-05   -0.56722E-05  3675   0.103E-02
  18 F= -.10583020E+04 E0= -.10583020E+04  d E =-.752242E-02  mag=    80.0000
       N       E                     dE             d eps       ncg     rms          rms(c)
DAV:   1    -0.105830199414E+04    0.19694E-04   -0.17711E-02  6976   0.158E-01    0.431E-02
RMM:   2    -0.105830204303E+04   -0.48890E-04   -0.49718E-04  5053   0.305E-02    0.349E-02
RMM:   3    -0.105830204489E+04   -0.18598E-05   -0.39715E-05  3470   0.118E-02    0.205E-02
RMM:   4    -0.105830204540E+04   -0.50632E-06   -0.14711E-05  3298   0.566E-03    0.161E-02
RMM:   5    -0.105830204579E+04   -0.39629E-06   -0.85639E-06  2909   0.404E-03    0.718E-03
RMM:   6    -0.105830204649E+04   -0.69344E-06   -0.46237E-06  2446   0.323E-03    0.318E-03
RMM:   7    -0.105830204683E+04   -0.34367E-06   -0.22371E-06  1857   0.258E-03    0.189E-03
RMM:   8    -0.105830204703E+04   -0.19875E-06   -0.11196E-06  1380   0.240E-03
  19 F= -.10583020E+04 E0= -.10583020E+04  d E =-.754812E-02  mag=    80.0000
       N       E                     dE             d eps       ncg     rms          rms(c)
DAV:   1    -0.105828822627E+04    0.13821E-01   -0.96307E+00  6176   0.365E+00    0.102E+00
RMM:   2    -0.105830928679E+04   -0.21061E-01   -0.26350E-01  6296   0.697E-01    0.767E-01
RMM:   3    -0.105830891374E+04    0.37305E-03   -0.15974E-02  6809   0.207E-01    0.499E-01
RMM:   4    -0.105830799041E+04    0.92333E-03   -0.25641E-03  7649   0.583E-02    0.313E-01
RMM:   5    -0.105830754149E+04    0.44892E-03   -0.16137E-03  6275   0.401E-02    0.112E-01
RMM:   6    -0.105830752990E+04    0.11590E-04   -0.18148E-04  4082   0.216E-02    0.881E-02
RMM:   7    -0.105830753626E+04   -0.63616E-05   -0.76133E-05  3662   0.109E-02    0.387E-02
RMM:   8    -0.105830753174E+04    0.45206E-05   -0.43161E-05  3613   0.104E-02
  20 F= -.10583075E+04 E0= -.10583075E+04  d E =-.548471E-02  mag=    80.0000
       N       E                     dE             d eps       ncg     rms          rms(c)
DAV:   1    -0.105830741170E+04    0.12456E-03   -0.90817E-02  6576   0.356E-01    0.967E-02
RMM:   2    -0.105830761987E+04   -0.20817E-03   -0.25913E-03  6242   0.679E-02    0.729E-02
RMM:   3    -0.105830761053E+04    0.93425E-05   -0.12063E-04  3692   0.210E-02    0.495E-02
RMM:   4    -0.105830760498E+04    0.55469E-05   -0.36738E-05  3549   0.909E-03    0.321E-02
RMM:   5    -0.105830760031E+04    0.46694E-05   -0.22636E-05  3536   0.637E-03    0.217E-02
RMM:   6    -0.105830760010E+04    0.21383E-06   -0.87473E-06  3242   0.505E-03    0.165E-02
RMM:   7    -0.105830759990E+04    0.19846E-06   -0.48556E-06  2627   0.298E-03    0.502E-03
RMM:   8    -0.105830759933E+04    0.56971E-06   -0.27134E-06  2394   0.302E-03
  21 F= -.10583076E+04 E0= -.10583076E+04  d E =-.555230E-02  mag=    80.0000
       N       E                     dE             d eps       ncg     rms          rms(c)
DAV:   1    -0.105829465261E+04    0.12947E-01   -0.71462E+00  6256   0.309E+00    0.905E-01
RMM:   2    -0.105831194923E+04   -0.17297E-01   -0.19067E-01  6308   0.580E-01    0.565E-01
RMM:   3    -0.105831206570E+04   -0.11647E-03   -0.10926E-02  6765   0.172E-01    0.337E-01
RMM:   4    -0.105831155774E+04    0.50796E-03   -0.20729E-03  7081   0.509E-02    0.198E-01
RMM:   5    -0.105831141743E+04    0.14031E-03   -0.65816E-04  5742   0.272E-02    0.847E-02
RMM:   6    -0.105831143570E+04   -0.18271E-04   -0.12352E-04  3771   0.150E-02    0.579E-02
RMM:   7    -0.105831144662E+04   -0.10921E-04   -0.47141E-05  3624   0.104E-02    0.340E-02
RMM:   8    -0.105831145635E+04   -0.97315E-05   -0.32977E-05  3581   0.819E-03
  22 F= -.10583115E+04 E0= -.10583115E+04  d E =-.385703E-02  mag=    80.0000
       N       E                     dE             d eps       ncg     rms          rms(c)
DAV:   1    -0.105831052390E+04    0.92272E-03   -0.48635E-01  6224   0.808E-01    0.235E-01
RMM:   2    -0.105831173469E+04   -0.12108E-02   -0.13134E-02  6316   0.151E-01    0.149E-01
RMM:   3    -0.105831173813E+04   -0.34380E-05   -0.70767E-04  5270   0.449E-02    0.881E-02
RMM:   4    -0.105831170657E+04    0.31564E-04   -0.12489E-04  3648   0.153E-02    0.548E-02
RMM:   5    -0.105831170242E+04    0.41415E-05   -0.51023E-05  3566   0.101E-02    0.406E-02
RMM:   6    -0.105831170647E+04   -0.40439E-05   -0.21874E-05  3514   0.691E-03    0.130E-02
RMM:   7    -0.105831170881E+04   -0.23429E-05   -0.10766E-05  3348   0.518E-03    0.166E-02
RMM:   8    -0.105831171071E+04   -0.19017E-05   -0.62235E-06  2849   0.377E-03
  23 F= -.10583117E+04 E0= -.10583117E+04  d E =-.411138E-02  mag=    80.0000
       N       E                     dE             d eps       ncg     rms          rms(c)
DAV:   1    -0.105829847998E+04    0.13229E-01   -0.62966E+00  6160   0.289E+00    0.812E-01
RMM:   2    -0.105831561744E+04   -0.17137E-01   -0.16006E-01  6388   0.524E-01    0.495E-01
RMM:   3    -0.105831609308E+04   -0.47564E-03   -0.82727E-03  6790   0.149E-01    0.288E-01
RMM:   4    -0.105831559405E+04    0.49903E-03   -0.17176E-03  6679   0.469E-02    0.145E-01
RMM:   5    -0.105831551339E+04    0.80661E-04   -0.58685E-04  5522   0.258E-02    0.409E-02
RMM:   6    -0.105831551554E+04   -0.21509E-05   -0.61924E-05  3683   0.120E-02    0.245E-02
RMM:   7    -0.105831551675E+04   -0.12039E-05   -0.36887E-05  3599   0.747E-03    0.185E-02
RMM:   8    -0.105831551675E+04   -0.29104E-09   -0.22432E-05  3476   0.661E-03
  24 F= -.10583155E+04 E0= -.10583155E+04  d E =-.380603E-02  mag=    80.0000
       N       E                     dE             d eps       ncg     rms          rms(c)
DAV:   1    -0.105831412800E+04    0.13887E-02   -0.64077E-01  6256   0.922E-01    0.258E-01
RMM:   2    -0.105831588768E+04   -0.17597E-02   -0.16480E-02  6403   0.167E-01    0.157E-01
RMM:   3    -0.105831592538E+04   -0.37701E-04   -0.81736E-04  5447   0.474E-02    0.925E-02
RMM:   4    -0.105831587344E+04    0.51934E-04   -0.15325E-04  3738   0.167E-02    0.476E-02
RMM:   5    -0.105831586761E+04    0.58353E-05   -0.70219E-05  3567   0.110E-02    0.167E-02
RMM:   6    -0.105831586934E+04   -0.17300E-05   -0.19166E-05  3480   0.707E-03    0.123E-02
RMM:   7    -0.105831587009E+04   -0.74912E-06   -0.11301E-05  3187   0.430E-03    0.758E-03
RMM:   8    -0.105831587008E+04    0.12486E-07   -0.64727E-06  2894   0.402E-03
  25 F= -.10583159E+04 E0= -.10583159E+04  d E =-.415936E-02  mag=    80.0000
       N       E                     dE             d eps       ncg     rms          rms(c)
DAV:   1    -0.105830908651E+04    0.67836E-02   -0.32314E+00  6192   0.209E+00    0.647E-01
RMM:   2    -0.105831758487E+04   -0.84984E-02   -0.89013E-02  6235   0.411E-01    0.515E-01
RMM:   3    -0.105831784629E+04   -0.26142E-03   -0.56090E-03  6719   0.120E-01    0.280E-01
RMM:   4    -0.105831753851E+04    0.30778E-03   -0.74186E-04  6151   0.339E-02    0.178E-01
RMM:   5    -0.105831738323E+04    0.15529E-03   -0.68206E-04  5420   0.270E-02    0.586E-02
RMM:   6    -0.105831737955E+04    0.36737E-05   -0.66738E-05  3679   0.150E-02    0.468E-02
RMM:   7    -0.105831738081E+04   -0.12543E-05   -0.30782E-05  3605   0.656E-03    0.219E-02
RMM:   8    -0.105831737828E+04    0.25287E-05   -0.16413E-05  3539   0.631E-03
  26 F= -.10583174E+04 E0= -.10583174E+04  d E =-.150820E-02  mag=    80.0000
       N       E                     dE             d eps       ncg     rms          rms(c)
DAV:   1    -0.105831710059E+04    0.28022E-03   -0.14107E-01  6400   0.436E-01    0.141E-01
RMM:   2    -0.105831746744E+04   -0.36685E-03   -0.38395E-03  6190   0.862E-02    0.115E-01
RMM:   3    -0.105831747348E+04   -0.60383E-05   -0.18025E-04  3742   0.256E-02    0.598E-02
RMM:   4    -0.105831746426E+04    0.92278E-05   -0.39522E-05  3421   0.106E-02    0.370E-02
RMM:   5    -0.105831746012E+04    0.41330E-05   -0.29316E-05  3366   0.686E-03    0.248E-02
RMM:   6    -0.105831746061E+04   -0.48809E-06   -0.75463E-06  2867   0.499E-03    0.149E-02
RMM:   7    -0.105831746107E+04   -0.46211E-06   -0.17743E-06  1833   0.226E-03    0.480E-03
RMM:   8    -0.105831746142E+04   -0.34302E-06   -0.78958E-07  1587   0.221E-03
  27 F= -.10583175E+04 E0= -.10583175E+04  d E =-.159134E-02  mag=    80.0000
       N       E                     dE             d eps       ncg     rms          rms(c)
DAV:   1    -0.105830995043E+04    0.75106E-02   -0.25433E+00  6288   0.187E+00    0.677E-01
RMM:   2    -0.105831823671E+04   -0.82863E-02   -0.68112E-02  6244   0.359E-01    0.449E-01
RMM:   3    -0.105831883646E+04   -0.59975E-03   -0.39946E-03  6440   0.107E-01    0.218E-01
RMM:   4    -0.105831865488E+04    0.18158E-03   -0.64187E-04  5837   0.315E-02    0.134E-01
RMM:   5    -0.105831859083E+04    0.64055E-04   -0.40104E-04  4726   0.229E-02    0.604E-02
RMM:   6    -0.105831859879E+04   -0.79645E-05   -0.51827E-05  3622   0.125E-02    0.418E-02
RMM:   7    -0.105831860393E+04   -0.51404E-05   -0.26966E-05  3556   0.676E-03    0.179E-02
RMM:   8    -0.105831860826E+04   -0.43299E-05   -0.15043E-05  3506   0.648E-03
  28 F= -.10583186E+04 E0= -.10583186E+04  d E =-.114685E-02  mag=    80.0000
       N       E                     dE             d eps       ncg     rms          rms(c)
DAV:   1    -0.105831847050E+04    0.13343E-03   -0.52641E-02  6248   0.269E-01    0.984E-02
RMM:   2    -0.105831863776E+04   -0.16726E-03   -0.13841E-03  6088   0.518E-02    0.667E-02
RMM:   3    -0.105831864893E+04   -0.11175E-04   -0.62091E-05  3376   0.163E-02    0.319E-02
RMM:   4    -0.105831864650E+04    0.24323E-05   -0.17511E-05  3328   0.668E-03    0.202E-02
RMM:   5    -0.105831864453E+04    0.19722E-05   -0.85501E-06  3000   0.443E-03    0.183E-02
RMM:   6    -0.105831864452E+04    0.60681E-08   -0.26456E-06  2385   0.305E-03    0.673E-03
RMM:   7    -0.105831864449E+04    0.31680E-07   -0.22527E-07  1097   0.177E-03    0.227E-03
RMM:   8    -0.105831864444E+04    0.46071E-07   -0.11368E-07   969   0.173E-03
  29 F= -.10583186E+04 E0= -.10583186E+04  d E =-.118303E-02  mag=    80.0000
