<?xml version="1.0" encoding="ISO-8859-1"?>
<modeling>
 <generator>
  <i name="program" type="string">vasp </i>
  <i name="version" type="string">5.4.1  </i>
  <i name="subversion" type="string">05Feb16 (build Jan 25 2017 20:16:33) complex                          parallel </i>
  <i name="platform" type="string">BWXE6 </i>
  <i name="date" type="string">2019 08 06 </i>
  <i name="time" type="string">15:49:57 </i>
 </generator>
 <incar>
  <i type="string" name="SYSTEM"> STF</i>
  <i type="string" name="PREC">normal</i>
  <i type="string" name="ALGO"> Fast</i>
  <i type="int" name="ISPIN">     2</i>
  <i type="int" name="NELM">    40</i>
  <i type="int" name="NELMIN">     8</i>
  <i type="int" name="IBRION">     2</i>
  <i name="EDIFF">      0.00010000</i>
  <i name="EDIFFG">     -0.03000000</i>
  <i type="int" name="NSW">    30</i>
  <i type="int" name="ISIF">     3</i>
  <i name="ENCUT">    520.00000000</i>
  <i type="int" name="NBANDS">   768</i>
  <v name="MAGMOM">      0.60000000      0.60000000      0.60000000      0.60000000      0.60000000      0.60000000      0.60000000      0.60000000      0.60000000      0.60000000      0.60000000      0.60000000      0.60000000      0.60000000      0.60000000      0.60000000      0.60000000      0.60000000      0.60000000      0.60000000
      0.60000000      0.60000000      0.60000000      0.60000000      0.60000000      0.60000000      0.60000000      0.60000000      0.60000000      0.60000000      0.60000000      0.60000000      0.60000000      0.60000000      0.60000000      0.60000000      0.60000000      0.60000000      0.60000000      0.60000000
      0.60000000      0.60000000      0.60000000      0.60000000      0.60000000      0.60000000      0.60000000      0.60000000      5.00000000      5.00000000      5.00000000      5.00000000      5.00000000      5.00000000      5.00000000      5.00000000      5.00000000      5.00000000      5.00000000      5.00000000
      5.00000000      5.00000000      5.00000000      5.00000000      0.60000000      0.60000000      0.60000000      0.60000000      0.60000000      0.60000000      0.60000000      0.60000000      0.60000000      0.60000000      0.60000000      0.60000000      0.60000000      0.60000000      0.60000000      0.60000000
      0.60000000      0.60000000      0.60000000      0.60000000      0.60000000      0.60000000      0.60000000      0.60000000      0.60000000      0.60000000      0.60000000      0.60000000      0.60000000      0.60000000      0.60000000      0.60000000      0.60000000      0.60000000      0.60000000      0.60000000
      0.60000000      0.60000000      0.60000000      0.60000000      0.60000000      0.60000000      0.60000000      0.60000000      0.60000000      0.60000000      0.60000000      0.60000000      0.60000000      0.60000000      0.60000000      0.60000000      0.60000000      0.60000000      0.60000000      0.60000000
      0.60000000      0.60000000      0.60000000      0.60000000      0.60000000      0.60000000      0.60000000      0.60000000      0.60000000      0.60000000      0.60000000      0.60000000      0.60000000      0.60000000      0.60000000      0.60000000      0.60000000      0.60000000      0.60000000      0.60000000
      0.60000000      0.60000000      0.60000000      0.60000000      0.60000000      0.60000000      0.60000000      0.60000000      0.60000000      0.60000000      0.60000000      0.60000000</v>
  <i type="string" name="LREAL"> Auto</i>
  <i type="int" name="ISMEAR">     0</i>
  <i name="SIGMA">      0.05000000</i>
  <i type="int" name="LMAXMIX">     4</i>
  <v type="int" name="KPOINT_BSE">    -1     0     0     0</v>
  <i type="int" name="NELM">    40</i>
  <i type="logical" name="LDAU"> T  </i>
  <v type="int" name="LDAUTYPE">     2</v>
  <v type="int" name="LDAUL">     0     2     2     0</v>
  <v name="LDAUU">      0.00000000      3.00000000      5.00000000      0.00000000</v>
  <v name="LDAUJ">      0.00000000      0.00000000      0.00000000      0.00000000</v>
  <i type="int" name="LDAUPRINT">     1</i>
 </incar>
 <kpoints>
  <generation param="Monkhorst-Pack">
   <v type="int" name="divisions">       2        2        2 </v>
   <v name="usershift">      0.00000000       0.00000000       0.00000000 </v>
   <v name="genvec1">      0.50000000       0.00000000       0.00000000 </v>
   <v name="genvec2">      0.00000000       0.50000000       0.00000000 </v>
   <v name="genvec3">      0.00000000       0.00000000       0.50000000 </v>
   <v name="shift">      0.50000000       0.50000000       0.50000000 </v>
  </generation>
  <varray name="kpointlist" >
   <v>       0.25000000       0.25000000       0.25000000 </v>
   <v>      -0.25000000       0.25000000       0.25000000 </v>
  </varray>
  <varray name="weights" >
   <v>       0.50000000 </v>
   <v>       0.50000000 </v>
  </varray>
 </kpoints>
 <parameters>
  <separator name="general" >
   <i type="string" name="SYSTEM">STF</i>
   <i type="logical" name="LCOMPAT"> F  </i>
  </separator>
  <separator name="electronic" >
   <i type="string" name="PREC">normal</i>
   <i name="ENMAX">    520.00000000</i>
   <i name="ENAUG">    605.39200000</i>
   <i name="EDIFF">      0.00010000</i>
   <i type="int" name="IALGO">    68</i>
   <i type="int" name="IWAVPR">    11</i>
   <i type="int" name="NBANDS">   768</i>
   <i name="NELECT">   1040.00000000</i>
   <i type="int" name="TURBO">     0</i>
   <i type="int" name="IRESTART">     0</i>
   <i type="int" name="NREBOOT">     0</i>
   <i type="int" name="NMIN">     0</i>
   <i name="EREF">      0.00000000</i>
   <separator name="electronic smearing" >
    <i type="int" name="ISMEAR">     0</i>
    <i name="SIGMA">      0.05000000</i>
    <i name="KSPACING">      0.50000000</i>
    <i type="logical" name="KGAMMA"> T  </i>
   </separator>
   <separator name="electronic projectors" >
    <i type="logical" name="LREAL"> T  </i>
    <v name="ROPT">     -0.00050000     -0.00050000     -0.00050000     -0.00050000</v>
    <i type="int" name="LMAXPAW">  -100</i>
    <i type="int" name="LMAXMIX">     4</i>
    <i type="logical" name="NLSPLINE"> F  </i>
   </separator>
   <separator name="electronic startup" >
    <i type="int" name="ISTART">     1</i>
    <i type="int" name="ICHARG">     0</i>
    <i type="int" name="INIWAV">     1</i>
   </separator>
   <separator name="electronic spin" >
    <i type="int" name="ISPIN">     2</i>
    <i type="logical" name="LNONCOLLINEAR"> F  </i>
    <v name="MAGMOM">      0.60000000      0.60000000      0.60000000      0.60000000      0.60000000      0.60000000      0.60000000      0.60000000      0.60000000      0.60000000      0.60000000      0.60000000      0.60000000      0.60000000      0.60000000      0.60000000      0.60000000      0.60000000      0.60000000      0.60000000
      0.60000000      0.60000000      0.60000000      0.60000000      0.60000000      0.60000000      0.60000000      0.60000000      0.60000000      0.60000000      0.60000000      0.60000000      0.60000000      0.60000000      0.60000000      0.60000000      0.60000000      0.60000000      0.60000000      0.60000000
      0.60000000      0.60000000      0.60000000      0.60000000      0.60000000      0.60000000      0.60000000      0.60000000      5.00000000      5.00000000      5.00000000      5.00000000      5.00000000      5.00000000      5.00000000      5.00000000      5.00000000      5.00000000      5.00000000      5.00000000
      5.00000000      5.00000000      5.00000000      5.00000000      0.60000000      0.60000000      0.60000000      0.60000000      0.60000000      0.60000000      0.60000000      0.60000000      0.60000000      0.60000000      0.60000000      0.60000000      0.60000000      0.60000000      0.60000000      0.60000000
      0.60000000      0.60000000      0.60000000      0.60000000      0.60000000      0.60000000      0.60000000      0.60000000      0.60000000      0.60000000      0.60000000      0.60000000      0.60000000      0.60000000      0.60000000      0.60000000      0.60000000      0.60000000      0.60000000      0.60000000
      0.60000000      0.60000000      0.60000000      0.60000000      0.60000000      0.60000000      0.60000000      0.60000000      0.60000000      0.60000000      0.60000000      0.60000000      0.60000000      0.60000000      0.60000000      0.60000000      0.60000000      0.60000000      0.60000000      0.60000000
      0.60000000      0.60000000      0.60000000      0.60000000      0.60000000      0.60000000      0.60000000      0.60000000      0.60000000      0.60000000      0.60000000      0.60000000      0.60000000      0.60000000      0.60000000      0.60000000      0.60000000      0.60000000      0.60000000      0.60000000
      0.60000000      0.60000000      0.60000000      0.60000000      0.60000000      0.60000000      0.60000000      0.60000000      0.60000000      0.60000000      0.60000000      0.60000000</v>
    <i name="NUPDOWN">     -1.00000000</i>
    <i type="logical" name="LSORBIT"> F  </i>
    <v name="SAXIS">      0.00000000      0.00000000      1.00000000</v>
    <i type="logical" name="LSPIRAL"> F  </i>
    <v name="QSPIRAL">      0.00000000      0.00000000      0.00000000</v>
    <i type="logical" name="LZEROZ"> F  </i>
   </separator>
   <separator name="electronic exchange-correlation" >
    <i type="logical" name="LASPH"> F  </i>
    <i type="logical" name="LMETAGGA"> F  </i>
   </separator>
   <separator name="electronic convergence" >
    <i type="int" name="NELM">    40</i>
    <i type="int" name="NELMDL">     0</i>
    <i type="int" name="NELMIN">     8</i>
    <i name="ENINI">    520.00000000</i>
    <separator name="electronic convergence detail" >
     <i type="logical" name="LDIAG"> T  </i>
     <i type="logical" name="LSUBROT"> F  </i>
     <i name="WEIMIN">      0.00100000</i>
     <i name="EBREAK">      0.00000003</i>
     <i name="DEPER">      0.30000000</i>
     <i type="int" name="NRMM">     4</i>
     <i name="TIME">      0.40000000</i>
    </separator>
   </separator>
   <separator name="electronic mixer" >
    <i name="AMIX">      0.40000000</i>
    <i name="BMIX">      1.00000000</i>
    <i name="AMIN">      0.10000000</i>
    <i name="AMIX_MAG">      1.60000000</i>
    <i name="BMIX_MAG">      1.00000000</i>
    <separator name="electronic mixer details" >
     <i type="int" name="IMIX">     4</i>
     <i type="logical" name="MIXFIRST"> F  </i>
     <i type="int" name="MAXMIX">   -45</i>
     <i name="WC">    100.00000000</i>
     <i type="int" name="INIMIX">     1</i>
     <i type="int" name="MIXPRE">     1</i>
     <i type="int" name="MREMOVE">     5</i>
    </separator>
   </separator>
   <separator name="electronic dipolcorrection" >
    <i type="logical" name="LDIPOL"> F  </i>
    <i type="logical" name="LMONO"> F  </i>
    <i type="int" name="IDIPOL">     0</i>
    <i name="EPSILON">      1.00000000</i>
    <v name="DIPOL">   -100.00000000   -100.00000000   -100.00000000</v>
    <i name="EFIELD">      0.00000000</i>
   </separator>
  </separator>
  <separator name="grids" >
   <i type="int" name="NGX">    64</i>
   <i type="int" name="NGY">    64</i>
   <i type="int" name="NGZ">    90</i>
   <i type="int" name="NGXF">   128</i>
   <i type="int" name="NGYF">   128</i>
   <i type="int" name="NGZF">   180</i>
   <i type="logical" name="ADDGRID"> F  </i>
  </separator>
  <separator name="ionic" >
   <i type="int" name="NSW">    30</i>
   <i type="int" name="IBRION">     2</i>
   <i type="int" name="ISIF">     3</i>
   <i name="PSTRESS">      0.00000000</i>
   <i name="EDIFFG">     -0.03000000</i>
   <i type="int" name="NFREE">     1</i>
   <i name="POTIM">      0.50000000</i>
   <i name="SMASS">     -3.00000000</i>
   <i name="SCALEE">      1.00000000</i>
  </separator>
  <separator name="ionic md" >
   <i name="TEBEG">      0.00010000</i>
   <i name="TEEND">      0.00010000</i>
   <i type="int" name="NBLOCK">     1</i>
   <i type="int" name="KBLOCK">    30</i>
   <i type="int" name="NPACO">   256</i>
   <i name="APACO">     16.00000000</i>
  </separator>
  <separator name="symmetry" >
   <i type="int" name="ISYM">     2</i>
   <i name="SYMPREC">      0.00001000</i>
  </separator>
  <separator name="dos" >
   <i type="logical" name="LORBIT"> F  </i>
   <v name="RWIGS">     -1.00000000     -1.00000000     -1.00000000     -1.00000000</v>
   <i type="int" name="NEDOS">   301</i>
   <i name="EMIN">     10.00000000</i>
   <i name="EMAX">    -10.00000000</i>
   <i name="EFERMI">      0.00000000</i>
  </separator>
  <separator name="writing" >
   <i type="int" name="NWRITE">     2</i>
   <i type="logical" name="LWAVE"> T  </i>
   <i type="logical" name="LCHARG"> T  </i>
   <i type="logical" name="LPARD"> F  </i>
   <i type="logical" name="LVTOT"> F  </i>
   <i type="logical" name="LVHAR"> F  </i>
   <i type="logical" name="LELF"> F  </i>
   <i type="logical" name="LOPTICS"> F  </i>
   <v name="STM">      0.00000000      0.00000000      0.00000000      0.00000000      0.00000000      0.00000000      0.00000000</v>
  </separator>
  <separator name="performance" >
   <i type="int" name="NPAR">     2</i>
   <i type="int" name="NSIM">     4</i>
   <i type="int" name="NBLK">    -1</i>
   <i type="logical" name="LPLANE"> T  </i>
   <i type="logical" name="LSCALAPACK"> T  </i>
   <i type="logical" name="LSCAAWARE"> F  </i>
   <i type="logical" name="LSCALU"> F  </i>
   <i type="logical" name="LASYNC"> F  </i>
   <i type="logical" name="LORBITALREAL"> F  </i>
  </separator>
  <separator name="miscellaneous" >
   <i type="int" name="IDIOT">     3</i>
   <i type="logical" name="LMUSIC"> F  </i>
   <v name="POMASS">     87.62000000     47.88000000     55.84700000     16.00000000</v>
   <v name="DARWINR">      0.00000000      0.00000000      0.00000000      0.00000000</v>
   <v name="DARWINV">      1.00000000      1.00000000      1.00000000      1.00000000</v>
   <i type="logical" name="LCORR"> T  </i>
  </separator>
  <i type="logical" name="GGA_COMPAT"> T  </i>
  <i type="logical" name="LBERRY"> F  </i>
  <i type="int" name="ICORELEVEL">     0</i>
  <i type="logical" name="LDAU"> T  </i>
  <v type="int" name="LDAUTYPE">     2</v>
  <v type="int" name="LDAUL">     0</v>
  <v name="LDAUU">      0.00000000</v>
  <v name="LDAUJ">      0.00000000</v>
  <i type="int" name="LDAUPRINT">     1</i>
  <i type="int" name="I_CONSTRAINED_M">     0</i>
  <separator name="electronic exchange-correlation" >
   <i type="string" name="GGA">--</i>
   <i type="int" name="VOSKOWN">     0</i>
   <i type="logical" name="LHFCALC"> F  </i>
   <i type="string" name="PRECFOCK"></i>
   <i type="logical" name="LSYMGRAD"> F  </i>
   <i type="logical" name="LHFONE"> F  </i>
   <i type="logical" name="LRHFCALC"> F  </i>
   <i type="logical" name="LTHOMAS"> F  </i>
   <i type="logical" name="LMODELHF"> F  </i>
   <i name="ENCUT4O">     -1.00000000</i>
   <i type="int" name="EXXOEP">     0</i>
   <i type="int" name="FOURORBIT">     0</i>
   <i name="AEXX">      0.00000000</i>
   <i name="HFALPHA">      0.00000000</i>
   <i name="MCALPHA">      0.00000000</i>
   <i name="ALDAX">      1.00000000</i>
   <i name="AGGAX">      1.00000000</i>
   <i name="ALDAC">      1.00000000</i>
   <i name="AGGAC">      1.00000000</i>
   <i type="int" name="NKREDX">     1</i>
   <i type="int" name="NKREDY">     1</i>
   <i type="int" name="NKREDZ">     1</i>
   <i type="logical" name="SHIFTRED"> F  </i>
   <i type="logical" name="ODDONLY"> F  </i>
   <i type="logical" name="EVENONLY"> F  </i>
   <i type="int" name="LMAXFOCK">     0</i>
   <i type="int" name="NMAXFOCKAE">     0</i>
   <i type="logical" name="LFOCKAEDFT"> F  </i>
   <i name="HFSCREEN">      0.00000000</i>
   <i name="HFSCREENC">      0.00000000</i>
   <i type="int" name="NBANDSGWLOW">     0</i>
  </separator>
  <separator name="vdW DFT" >
   <i type="logical" name="LUSE_VDW"> F  </i>
   <i name="Zab_VDW">     -0.84910000</i>
   <i name="PARAM1">      0.12340000</i>
   <i name="PARAM2">      1.00000000</i>
   <i name="PARAM3">      0.00000000</i>
  </separator>
  <separator name="model GW" >
   <i type="int" name="MODEL_GW">     0</i>
   <i name="MODEL_EPS0">      7.87982341</i>
   <i name="MODEL_ALPHA">      1.00000000</i>
  </separator>
  <separator name="linear response parameters" >
   <i type="logical" name="LEPSILON"> F  </i>
   <i type="logical" name="LRPA"> F  </i>
   <i type="logical" name="LNABLA"> F  </i>
   <i type="logical" name="LVEL"> F  </i>
   <i type="int" name="KINTER">     0</i>
   <i name="CSHIFT">      0.10000000</i>
   <i name="OMEGAMAX">     -1.00000000</i>
   <i name="DEG_THRESHOLD">      0.00200000</i>
  </separator>
  <separator name="orbital magnetization" >
   <i type="logical" name="NUCIND"> F  </i>
   <v name="MAGPOS">      0.00000000      0.00000000      0.00000000</v>
   <i type="logical" name="LNICSALL"> T  </i>
   <i type="logical" name="ORBITALMAG"> F  </i>
   <i type="logical" name="LMAGBLOCH"> F  </i>
   <i type="logical" name="LCHIMAG"> F  </i>
   <i type="logical" name="LGAUGE"> T  </i>
   <i type="int" name="MAGATOM">     0</i>
   <v name="MAGDIPOL">      0.00000000      0.00000000      0.00000000</v>
   <v name="AVECCONST">      0.00000000      0.00000000      0.00000000</v>
  </separator>
  <separator name="response functions" >
   <i type="logical" name="LADDER"> F  </i>
   <i type="logical" name="LFXC"> F  </i>
   <i type="logical" name="LHARTREE"> T  </i>
   <i type="int" name="IBSE">     0</i>
   <v type="int" name="KPOINT">    -1     0     0     0</v>
   <i type="logical" name="LTCTE"> F  </i>
   <i type="logical" name="LTETE"> F  </i>
   <i type="logical" name="LTRIPLET"> F  </i>
   <i type="logical" name="LFXCEPS"> F  </i>
   <i type="logical" name="LFXHEG"> F  </i>
   <i type="int" name="NATURALO">     0</i>
   <i type="logical" name="L2ORDER"> F  </i>
   <i type="logical" name="LUSEW"> F  </i>
   <i name="ENCUTGW">     -2.00000000</i>
   <i name="ENCUTGWSOFT">     -2.00000000</i>
   <i name="ENCUTLF">     -1.00000000</i>
   <i type="int" name="LMAXMP2">    -1</i>
   <i name="SCISSOR">      0.00000000</i>
   <i type="int" name="NOMEGA">     0</i>
   <i type="int" name="NOMEGAR">     0</i>
   <i type="int" name="NBANDSGW">    -1</i>
   <i type="int" name="NBANDSO">    -1</i>
   <i type="int" name="NBANDSV">    -1</i>
   <i type="int" name="NELM">    40</i>
   <i type="int" name="NELMHF">     1</i>
   <i type="int" name="DIM">     3</i>
   <i type="int" name="ANTIRES">     0</i>
   <i name="OMEGAMAX">    -30.00000000</i>
   <i name="OMEGAMIN">    -30.00000000</i>
   <i name="OMEGATL">   -200.00000000</i>
   <i type="int" name="OMEGAGRID">     0</i>
   <i name="CSHIFT">     -0.10000000</i>
   <i type="logical" name="SELFENERGY"> F  </i>
   <i type="logical" name="LSPECTRAL"> F  </i>
   <i type="logical" name="LSPECTRALGW"> F  </i>
   <i type="logical" name="LSINGLES"> F  </i>
   <i type="logical" name="LFERMIGW"> F  </i>
   <i type="logical" name="ODDONLYGW"> F  </i>
   <i type="logical" name="EVENONLYGW"> F  </i>
   <i type="int" name="NKREDLFX">     1</i>
   <i type="int" name="NKREDLFY">     1</i>
   <i type="int" name="NKREDLFZ">     1</i>
   <i type="int" name="MAXMEM">  1800</i>
   <i type="int" name="TELESCOPE">     0</i>
   <i type="int" name="TAUPAR">     1</i>
   <i type="int" name="OMEGAPAR">    -1</i>
   <i name="LAMBDA">      1.00000000</i>
  </separator>
  <separator name="External order field" >
   <i name="OFIELD_KAPPA">      0.00000000</i>
   <v name="OFIELD_K">      0.00000000      0.00000000      0.00000000</v>
   <i name="OFIELD_Q6_NEAR">      0.00000000</i>
   <i name="OFIELD_Q6_FAR">      0.00000000</i>
   <i name="OFIELD_A">      0.00000000</i>
  </separator>
 </parameters>
 <atominfo>
  <atoms>     152 </atoms>
  <types>       4 </types>
  <array name="atoms" >
   <dimension dim="1">ion</dimension>
   <field type="string">element</field>
   <field type="int">atomtype</field>
   <set>
    <rc><c>Sr</c><c>   1</c></rc>
    <rc><c>Sr</c><c>   1</c></rc>
    <rc><c>Sr</c><c>   1</c></rc>
    <rc><c>Sr</c><c>   1</c></rc>
    <rc><c>Sr</c><c>   1</c></rc>
    <rc><c>Sr</c><c>   1</c></rc>
    <rc><c>Sr</c><c>   1</c></rc>
    <rc><c>Sr</c><c>   1</c></rc>
    <rc><c>Sr</c><c>   1</c></rc>
    <rc><c>Sr</c><c>   1</c></rc>
    <rc><c>Sr</c><c>   1</c></rc>
    <rc><c>Sr</c><c>   1</c></rc>
    <rc><c>Sr</c><c>   1</c></rc>
    <rc><c>Sr</c><c>   1</c></rc>
    <rc><c>Sr</c><c>   1</c></rc>
    <rc><c>Sr</c><c>   1</c></rc>
    <rc><c>Sr</c><c>   1</c></rc>
    <rc><c>Sr</c><c>   1</c></rc>
    <rc><c>Sr</c><c>   1</c></rc>
    <rc><c>Sr</c><c>   1</c></rc>
    <rc><c>Sr</c><c>   1</c></rc>
    <rc><c>Sr</c><c>   1</c></rc>
    <rc><c>Sr</c><c>   1</c></rc>
    <rc><c>Sr</c><c>   1</c></rc>
    <rc><c>Sr</c><c>   1</c></rc>
    <rc><c>Sr</c><c>   1</c></rc>
    <rc><c>Sr</c><c>   1</c></rc>
    <rc><c>Sr</c><c>   1</c></rc>
    <rc><c>Sr</c><c>   1</c></rc>
    <rc><c>Sr</c><c>   1</c></rc>
    <rc><c>Sr</c><c>   1</c></rc>
    <rc><c>Sr</c><c>   1</c></rc>
    <rc><c>Ti</c><c>   2</c></rc>
    <rc><c>Ti</c><c>   2</c></rc>
    <rc><c>Ti</c><c>   2</c></rc>
    <rc><c>Ti</c><c>   2</c></rc>
    <rc><c>Ti</c><c>   2</c></rc>
    <rc><c>Ti</c><c>   2</c></rc>
    <rc><c>Ti</c><c>   2</c></rc>
    <rc><c>Ti</c><c>   2</c></rc>
    <rc><c>Ti</c><c>   2</c></rc>
    <rc><c>Ti</c><c>   2</c></rc>
    <rc><c>Ti</c><c>   2</c></rc>
    <rc><c>Ti</c><c>   2</c></rc>
    <rc><c>Ti</c><c>   2</c></rc>
    <rc><c>Ti</c><c>   2</c></rc>
    <rc><c>Ti</c><c>   2</c></rc>
    <rc><c>Ti</c><c>   2</c></rc>
    <rc><c>Fe</c><c>   3</c></rc>
    <rc><c>Fe</c><c>   3</c></rc>
    <rc><c>Fe</c><c>   3</c></rc>
    <rc><c>Fe</c><c>   3</c></rc>
    <rc><c>Fe</c><c>   3</c></rc>
    <rc><c>Fe</c><c>   3</c></rc>
    <rc><c>Fe</c><c>   3</c></rc>
    <rc><c>Fe</c><c>   3</c></rc>
    <rc><c>Fe</c><c>   3</c></rc>
    <rc><c>Fe</c><c>   3</c></rc>
    <rc><c>Fe</c><c>   3</c></rc>
    <rc><c>Fe</c><c>   3</c></rc>
    <rc><c>Fe</c><c>   3</c></rc>
    <rc><c>Fe</c><c>   3</c></rc>
    <rc><c>Fe</c><c>   3</c></rc>
    <rc><c>Fe</c><c>   3</c></rc>
    <rc><c>O </c><c>   4</c></rc>
    <rc><c>O </c><c>   4</c></rc>
    <rc><c>O </c><c>   4</c></rc>
    <rc><c>O </c><c>   4</c></rc>
    <rc><c>O </c><c>   4</c></rc>
    <rc><c>O </c><c>   4</c></rc>
    <rc><c>O </c><c>   4</c></rc>
    <rc><c>O </c><c>   4</c></rc>
    <rc><c>O </c><c>   4</c></rc>
    <rc><c>O </c><c>   4</c></rc>
    <rc><c>O </c><c>   4</c></rc>
    <rc><c>O </c><c>   4</c></rc>
    <rc><c>O </c><c>   4</c></rc>
    <rc><c>O </c><c>   4</c></rc>
    <rc><c>O </c><c>   4</c></rc>
    <rc><c>O </c><c>   4</c></rc>
    <rc><c>O </c><c>   4</c></rc>
    <rc><c>O </c><c>   4</c></rc>
    <rc><c>O </c><c>   4</c></rc>
    <rc><c>O </c><c>   4</c></rc>
    <rc><c>O </c><c>   4</c></rc>
    <rc><c>O </c><c>   4</c></rc>
    <rc><c>O </c><c>   4</c></rc>
    <rc><c>O </c><c>   4</c></rc>
    <rc><c>O </c><c>   4</c></rc>
    <rc><c>O </c><c>   4</c></rc>
    <rc><c>O </c><c>   4</c></rc>
    <rc><c>O </c><c>   4</c></rc>
    <rc><c>O </c><c>   4</c></rc>
    <rc><c>O </c><c>   4</c></rc>
    <rc><c>O </c><c>   4</c></rc>
    <rc><c>O </c><c>   4</c></rc>
    <rc><c>O </c><c>   4</c></rc>
    <rc><c>O </c><c>   4</c></rc>
    <rc><c>O </c><c>   4</c></rc>
    <rc><c>O </c><c>   4</c></rc>
    <rc><c>O </c><c>   4</c></rc>
    <rc><c>O </c><c>   4</c></rc>
    <rc><c>O </c><c>   4</c></rc>
    <rc><c>O </c><c>   4</c></rc>
    <rc><c>O </c><c>   4</c></rc>
    <rc><c>O </c><c>   4</c></rc>
    <rc><c>O </c><c>   4</c></rc>
    <rc><c>O </c><c>   4</c></rc>
    <rc><c>O </c><c>   4</c></rc>
    <rc><c>O </c><c>   4</c></rc>
    <rc><c>O </c><c>   4</c></rc>
    <rc><c>O </c><c>   4</c></rc>
    <rc><c>O </c><c>   4</c></rc>
    <rc><c>O </c><c>   4</c></rc>
    <rc><c>O </c><c>   4</c></rc>
    <rc><c>O </c><c>   4</c></rc>
    <rc><c>O </c><c>   4</c></rc>
    <rc><c>O </c><c>   4</c></rc>
    <rc><c>O </c><c>   4</c></rc>
    <rc><c>O </c><c>   4</c></rc>
    <rc><c>O </c><c>   4</c></rc>
    <rc><c>O </c><c>   4</c></rc>
    <rc><c>O </c><c>   4</c></rc>
    <rc><c>O </c><c>   4</c></rc>
    <rc><c>O </c><c>   4</c></rc>
    <rc><c>O </c><c>   4</c></rc>
    <rc><c>O </c><c>   4</c></rc>
    <rc><c>O </c><c>   4</c></rc>
    <rc><c>O </c><c>   4</c></rc>
    <rc><c>O </c><c>   4</c></rc>
    <rc><c>O </c><c>   4</c></rc>
    <rc><c>O </c><c>   4</c></rc>
    <rc><c>O </c><c>   4</c></rc>
    <rc><c>O </c><c>   4</c></rc>
    <rc><c>O </c><c>   4</c></rc>
    <rc><c>O </c><c>   4</c></rc>
    <rc><c>O </c><c>   4</c></rc>
    <rc><c>O </c><c>   4</c></rc>
    <rc><c>O </c><c>   4</c></rc>
    <rc><c>O </c><c>   4</c></rc>
    <rc><c>O </c><c>   4</c></rc>
    <rc><c>O </c><c>   4</c></rc>
    <rc><c>O </c><c>   4</c></rc>
    <rc><c>O </c><c>   4</c></rc>
    <rc><c>O </c><c>   4</c></rc>
    <rc><c>O </c><c>   4</c></rc>
    <rc><c>O </c><c>   4</c></rc>
    <rc><c>O </c><c>   4</c></rc>
    <rc><c>O </c><c>   4</c></rc>
    <rc><c>O </c><c>   4</c></rc>
    <rc><c>O </c><c>   4</c></rc>
    <rc><c>O </c><c>   4</c></rc>
   </set>
  </array>
  <array name="atomtypes" >
   <dimension dim="1">type</dimension>
   <field type="int">atomspertype</field>
   <field type="string">element</field>
   <field>mass</field>
   <field>valence</field>
   <field type="string">pseudopotential</field>
   <set>
    <rc><c>  32</c><c>Sr</c><c>     87.62000000</c><c>     10.00000000</c><c>  PAW_PBE Sr_sv 07Sep2000               </c></rc>
    <rc><c>  16</c><c>Ti</c><c>     47.88000000</c><c>      4.00000000</c><c>  PAW_PBE Ti 08Apr2002                  </c></rc>
    <rc><c>  16</c><c>Fe</c><c>     55.84700000</c><c>      8.00000000</c><c>  PAW_PBE Fe 06Sep2000                  </c></rc>
    <rc><c>  88</c><c>O </c><c>     16.00000000</c><c>      6.00000000</c><c>  PAW_PBE O 08Apr2002                   </c></rc>
   </set>
  </array>
 </atominfo>
 <structure name="initialpos" >
  <crystal>
   <varray name="basis" >
    <v>      11.30605130       0.01917749       0.00000000 </v>
    <v>       0.01956923      11.31275326       0.00000000 </v>
    <v>       0.00000000       0.00000000      15.60740966 </v>
   </varray>
   <i name="volume">   1996.22193063 </i>
   <varray name="rec_basis" >
    <v>       0.08844847      -0.00015300       0.00000000 </v>
    <v>      -0.00014994       0.08839607       0.00000000 </v>
    <v>       0.00000000       0.00000000       0.06407213 </v>
   </varray>
  </crystal>
  <varray name="positions" >
   <v>       0.99269438       0.24598147       0.11437709 </v>
   <v>       0.99037680       0.25139698       0.62438296 </v>
   <v>       0.99269438       0.74598147       0.11437709 </v>
   <v>       0.99037680       0.75139698       0.62438296 </v>
   <v>       0.50962320       0.24860302       0.12438296 </v>
   <v>       0.50730562       0.25401853       0.61437709 </v>
   <v>       0.50962320       0.74860302       0.12438296 </v>
   <v>       0.50730562       0.75401853       0.61437709 </v>
   <v>       0.99269438       0.24598147       0.38562291 </v>
   <v>       0.99037680       0.25139698       0.87561704 </v>
   <v>       0.99269438       0.74598147       0.38562291 </v>
   <v>       0.99037680       0.75139698       0.87561704 </v>
   <v>       0.50962320       0.24860302       0.37561704 </v>
   <v>       0.50730562       0.25401853       0.88562291 </v>
   <v>       0.50962320       0.74860302       0.37561704 </v>
   <v>       0.50730562       0.75401853       0.88562291 </v>
   <v>       0.24604274       0.00703047       0.11553537 </v>
   <v>       0.25395726       0.99296953       0.61553537 </v>
   <v>       0.24604274       0.50703047       0.11553537 </v>
   <v>       0.25395726       0.49296953       0.61553537 </v>
   <v>       0.75491146       0.00270557       0.12097032 </v>
   <v>       0.74508854       0.99729443       0.62097032 </v>
   <v>       0.75491146       0.50270557       0.12097032 </v>
   <v>       0.74508854       0.49729443       0.62097032 </v>
   <v>       0.24604274       0.00703047       0.38446463 </v>
   <v>       0.25395726       0.99296953       0.88446463 </v>
   <v>       0.24604274       0.50703047       0.38446463 </v>
   <v>       0.25395726       0.49296953       0.88446463 </v>
   <v>       0.75491146       0.00270557       0.37902968 </v>
   <v>       0.74508854       0.99729443       0.87902968 </v>
   <v>       0.75491146       0.50270557       0.37902968 </v>
   <v>       0.74508854       0.49729443       0.87902968 </v>
   <v>       0.75711612       0.74119062       0.25000000 </v>
   <v>       0.50132758       0.00043230       0.00256113 </v>
   <v>       0.25000000       0.75000000       0.00000000 </v>
   <v>       0.99867242       0.49956770       0.99743887 </v>
   <v>       0.50132758       0.50043230       0.49743887 </v>
   <v>       0.25000000       0.25000000       0.50000000 </v>
   <v>       0.25000000       0.75000000       0.50000000 </v>
   <v>       0.99867242       0.99956770       0.50256113 </v>
   <v>       0.75711612       0.24119062       0.25000000 </v>
   <v>       0.25000000       0.25000000       0.00000000 </v>
   <v>       0.74288388       0.75880938       0.75000000 </v>
   <v>       0.50132758       0.50043230       0.00256113 </v>
   <v>       0.50132758       0.00043230       0.49743887 </v>
   <v>       0.99867242       0.49956770       0.50256113 </v>
   <v>       0.74288388       0.25880938       0.75000000 </v>
   <v>       0.99867242       0.99956770       0.99743887 </v>
   <v>       0.52390023       0.99045890       0.25000000 </v>
   <v>       0.52390023       0.49045890       0.25000000 </v>
   <v>       0.99198154       0.48566426       0.25000000 </v>
   <v>       0.99198154       0.98566426       0.25000000 </v>
   <v>       0.25605228       0.79184079       0.25000000 </v>
   <v>       0.75000000       0.25000000       0.00000000 </v>
   <v>       0.75000000       0.75000000       0.50000000 </v>
   <v>       0.25605228       0.29184079       0.25000000 </v>
   <v>       0.24394772       0.20815921       0.75000000 </v>
   <v>       0.24394772       0.70815921       0.75000000 </v>
   <v>       0.75000000       0.75000000       0.00000000 </v>
   <v>       0.50801846       0.51433574       0.75000000 </v>
   <v>       0.75000000       0.25000000       0.50000000 </v>
   <v>       0.97609977       0.00954110       0.75000000 </v>
   <v>       0.50801846       0.01433574       0.75000000 </v>
   <v>       0.97609977       0.50954110       0.75000000 </v>
   <v>       0.01076178       0.01703761       0.12476929 </v>
   <v>       0.01974336       0.97992460       0.63084646 </v>
   <v>       0.01076178       0.51703761       0.12476929 </v>
   <v>       0.01974336       0.47992460       0.63084646 </v>
   <v>       0.48025664       0.02007540       0.13084646 </v>
   <v>       0.48923822       0.98296239       0.62476929 </v>
   <v>       0.48025664       0.52007540       0.13084646 </v>
   <v>       0.48923822       0.48296239       0.62476929 </v>
   <v>       0.01076178       0.01703761       0.37523071 </v>
   <v>       0.01974336       0.97992460       0.86915354 </v>
   <v>       0.01076178       0.51703761       0.37523071 </v>
   <v>       0.01974336       0.47992460       0.86915354 </v>
   <v>       0.48025664       0.02007540       0.36915354 </v>
   <v>       0.48923822       0.98296239       0.87523071 </v>
   <v>       0.48025664       0.52007540       0.36915354 </v>
   <v>       0.48923822       0.48296239       0.87523071 </v>
   <v>       0.23932578       0.22511931       0.36186918 </v>
   <v>       0.26067422       0.27488069       0.86186918 </v>
   <v>       0.23932578       0.72511931       0.36186918 </v>
   <v>       0.26067422       0.77488069       0.86186918 </v>
   <v>       0.75721606       0.23823830       0.37511375 </v>
   <v>       0.74278394       0.26176170       0.87511375 </v>
   <v>       0.75721606       0.73823830       0.37511375 </v>
   <v>       0.74278394       0.76176170       0.87511375 </v>
   <v>       0.23932578       0.22511931       0.13813082 </v>
   <v>       0.26067422       0.27488069       0.63813082 </v>
   <v>       0.23932578       0.72511931       0.13813082 </v>
   <v>       0.26067422       0.77488069       0.63813082 </v>
   <v>       0.75721606       0.23823830       0.12488625 </v>
   <v>       0.74278394       0.26176170       0.62488625 </v>
   <v>       0.75721606       0.73823830       0.12488625 </v>
   <v>       0.74278394       0.76176170       0.62488625 </v>
   <v>       0.61053856       0.14237616       0.25000000 </v>
   <v>       0.86418155       0.10181823       0.25000000 </v>
   <v>       0.16066324       0.42923050       0.25000000 </v>
   <v>       0.40997676       0.35155270       0.25000000 </v>
   <v>       0.65926223       0.39187650       0.25000000 </v>
   <v>       0.90804620       0.34223336       0.25000000 </v>
   <v>       0.61053856       0.64237616       0.25000000 </v>
   <v>       0.86418155       0.60181823       0.25000000 </v>
   <v>       0.16066324       0.92923050       0.25000000 </v>
   <v>       0.40997676       0.85155270       0.25000000 </v>
   <v>       0.65926223       0.89187650       0.25000000 </v>
   <v>       0.90804620       0.84223336       0.25000000 </v>
   <v>       0.12997321       0.12614265       0.51024906 </v>
   <v>       0.37359891       0.12880029       0.50625810 </v>
   <v>       0.62319444       0.11985846       0.50393720 </v>
   <v>       0.88078042       0.12401620       0.51133824 </v>
   <v>       0.12640109       0.37119971       0.49374190 </v>
   <v>       0.37002679       0.37385735       0.48975094 </v>
   <v>       0.61921958       0.37598380       0.48866176 </v>
   <v>       0.87680556       0.38014154       0.49606280 </v>
   <v>       0.12997321       0.62614265       0.51024906 </v>
   <v>       0.37359891       0.62880029       0.50625810 </v>
   <v>       0.62319444       0.61985846       0.50393720 </v>
   <v>       0.88078042       0.62401620       0.51133824 </v>
   <v>       0.12640109       0.87119971       0.49374190 </v>
   <v>       0.37002679       0.87385735       0.48975094 </v>
   <v>       0.61921958       0.87598380       0.48866176 </v>
   <v>       0.87680556       0.88014154       0.49606280 </v>
   <v>       0.09002324       0.14844730       0.75000000 </v>
   <v>       0.33933676       0.07076950       0.75000000 </v>
   <v>       0.59195380       0.15776664       0.75000000 </v>
   <v>       0.84073777       0.10812350       0.75000000 </v>
   <v>       0.63581845       0.39818177       0.75000000 </v>
   <v>       0.88946144       0.35762384       0.75000000 </v>
   <v>       0.09002324       0.64844730       0.75000000 </v>
   <v>       0.33933676       0.57076950       0.75000000 </v>
   <v>       0.59195380       0.65776664       0.75000000 </v>
   <v>       0.84073777       0.60812350       0.75000000 </v>
   <v>       0.63581845       0.89818177       0.75000000 </v>
   <v>       0.88946144       0.85762384       0.75000000 </v>
   <v>       0.12997321       0.12614265       0.98975094 </v>
   <v>       0.37359891       0.12880029       0.99374190 </v>
   <v>       0.62319444       0.11985846       0.99606280 </v>
   <v>       0.88078042       0.12401620       0.98866176 </v>
   <v>       0.12640109       0.37119971       0.00625810 </v>
   <v>       0.37002679       0.37385735       0.01024906 </v>
   <v>       0.61921958       0.37598380       0.01133824 </v>
   <v>       0.87680556       0.38014154       0.00393720 </v>
   <v>       0.12997321       0.62614265       0.98975094 </v>
   <v>       0.37359891       0.62880029       0.99374190 </v>
   <v>       0.62319444       0.61985846       0.99606280 </v>
   <v>       0.88078042       0.62401620       0.98866176 </v>
   <v>       0.12640109       0.87119971       0.00625810 </v>
   <v>       0.37002679       0.87385735       0.01024906 </v>
   <v>       0.61921958       0.87598380       0.01133824 </v>
   <v>       0.87680556       0.88014154       0.00393720 </v>
  </varray>
 </structure>
 <calculation>
  <scstep>
   <time name="dav">  153.77  153.81</time>
   <time name="total">  156.24  156.33</time>
   <energy>
    <i name="alphaZ">   5641.77625728 </i>
    <i name="ewald"> -62312.46630058 </i>
    <i name="hartreedc"> -17338.87120834 </i>
    <i name="XCdc">   3188.88074882 </i>
    <i name="pawpsdc"> 118040.55104432 </i>
    <i name="pawaedc">-117243.57093260 </i>
    <i name="eentropy">     -0.00000000 </i>
    <i name="bandstr">  -7084.46661568 </i>
    <i name="atom">  76050.17612637 </i>
    <i name="e_fr_energy">  -1057.99088040 </i>
    <i name="e_wo_entrp">  -1057.99088040 </i>
    <i name="e_0_energy">  -1057.99088040 </i>
   </energy>
  </scstep>
  <scstep>
   <time name="diag">   16.53   16.53</time>
   <time name="diis">   18.06   18.06</time>
   <time name="orth">    9.41    9.41</time>
   <time name="total">   46.47   46.57</time>
   <energy>
    <i name="e_fr_energy">  -1057.99089879 </i>
    <i name="e_wo_entrp">  -1057.99089879 </i>
    <i name="e_0_energy">  -1057.99089879 </i>
   </energy>
  </scstep>
  <scstep>
   <time name="diag">   16.51   16.52</time>
   <time name="diis">   16.76   16.76</time>
   <time name="orth">    9.42    9.42</time>
   <time name="total">   45.17   45.20</time>
   <energy>
    <i name="e_fr_energy">  -1057.99090321 </i>
    <i name="e_wo_entrp">  -1057.99090321 </i>
    <i name="e_0_energy">  -1057.99090321 </i>
   </energy>
  </scstep>
  <scstep>
   <time name="diag">   16.50   16.51</time>
   <time name="diis">   16.33   16.33</time>
   <time name="orth">    9.42    9.42</time>
   <time name="total">   44.73   44.76</time>
   <energy>
    <i name="e_fr_energy">  -1057.99091413 </i>
    <i name="e_wo_entrp">  -1057.99091413 </i>
    <i name="e_0_energy">  -1057.99091413 </i>
   </energy>
  </scstep>
  <scstep>
   <time name="diag">   16.51   16.54</time>
   <time name="diis">   15.78   15.79</time>
   <time name="orth">    9.40    9.42</time>
   <time name="total">   44.17   44.25</time>
   <energy>
    <i name="e_fr_energy">  -1057.99091847 </i>
    <i name="e_wo_entrp">  -1057.99091847 </i>
    <i name="e_0_energy">  -1057.99091847 </i>
   </energy>
  </scstep>
  <scstep>
   <time name="diag">   16.52   16.52</time>
   <time name="diis">   15.19   15.19</time>
   <time name="orth">    9.42    9.42</time>
   <time name="total">   43.60   43.68</time>
   <energy>
    <i name="e_fr_energy">  -1057.99092163 </i>
    <i name="e_wo_entrp">  -1057.99092163 </i>
    <i name="e_0_energy">  -1057.99092163 </i>
   </energy>
  </scstep>
  <scstep>
   <time name="diag">   16.51   16.52</time>
   <time name="diis">   14.78   14.79</time>
   <time name="orth">    9.40    9.40</time>
   <time name="total">   43.19   43.25</time>
   <energy>
    <i name="e_fr_energy">  -1057.99092317 </i>
    <i name="e_wo_entrp">  -1057.99092317 </i>
    <i name="e_0_energy">  -1057.99092317 </i>
   </energy>
  </scstep>
  <scstep>
   <time name="diag">   16.52   16.54</time>
   <time name="diis">   13.95   13.96</time>
   <time name="orth">    9.39    9.40</time>
   <time name="total">   40.43   40.47</time>
   <energy>
    <i name="alphaZ">   5641.77625728 </i>
    <i name="ewald"> -62312.46630058 </i>
    <i name="hartreedc"> -17338.79392779 </i>
    <i name="XCdc">   3188.87178536 </i>
    <i name="pawpsdc"> 118033.02595897 </i>
    <i name="pawaedc">-117235.99104280 </i>
    <i name="eentropy">     -0.00000000 </i>
    <i name="bandstr">  -7084.58978110 </i>
    <i name="atom">  76050.17612637 </i>
    <i name="e_fr_energy">  -1057.99092428 </i>
    <i name="e_wo_entrp">  -1057.99092428 </i>
    <i name="e_0_energy">  -1057.99092428 </i>
   </energy>
  </scstep>
  <structure>
   <crystal>
    <varray name="basis" >
     <v>      11.30605130       0.01917749       0.00000000 </v>
     <v>       0.01956923      11.31275326       0.00000000 </v>
     <v>       0.00000000       0.00000000      15.60740966 </v>
    </varray>
    <i name="volume">   1996.22193063 </i>
    <varray name="rec_basis" >
     <v>       0.08844847      -0.00015300       0.00000000 </v>
     <v>      -0.00014994       0.08839607       0.00000000 </v>
     <v>       0.00000000       0.00000000       0.06407213 </v>
    </varray>
   </crystal>
   <varray name="positions" >
    <v>       0.99269438       0.24598147       0.11437709 </v>
    <v>       0.99037680       0.25139698       0.62438296 </v>
    <v>       0.99269438       0.74598147       0.11437709 </v>
    <v>       0.99037680       0.75139698       0.62438296 </v>
    <v>       0.50962320       0.24860302       0.12438296 </v>
    <v>       0.50730562       0.25401853       0.61437709 </v>
    <v>       0.50962320       0.74860302       0.12438296 </v>
    <v>       0.50730562       0.75401853       0.61437709 </v>
    <v>       0.99269438       0.24598147       0.38562291 </v>
    <v>       0.99037680       0.25139698       0.87561704 </v>
    <v>       0.99269438       0.74598147       0.38562291 </v>
    <v>       0.99037680       0.75139698       0.87561704 </v>
    <v>       0.50962320       0.24860302       0.37561704 </v>
    <v>       0.50730562       0.25401853       0.88562291 </v>
    <v>       0.50962320       0.74860302       0.37561704 </v>
    <v>       0.50730562       0.75401853       0.88562291 </v>
    <v>       0.24604274       0.00703047       0.11553537 </v>
    <v>       0.25395726       0.99296953       0.61553537 </v>
    <v>       0.24604274       0.50703047       0.11553537 </v>
    <v>       0.25395726       0.49296953       0.61553537 </v>
    <v>       0.75491146       0.00270557       0.12097032 </v>
    <v>       0.74508854       0.99729443       0.62097032 </v>
    <v>       0.75491146       0.50270557       0.12097032 </v>
    <v>       0.74508854       0.49729443       0.62097032 </v>
    <v>       0.24604274       0.00703047       0.38446463 </v>
    <v>       0.25395726       0.99296953       0.88446463 </v>
    <v>       0.24604274       0.50703047       0.38446463 </v>
    <v>       0.25395726       0.49296953       0.88446463 </v>
    <v>       0.75491146       0.00270557       0.37902968 </v>
    <v>       0.74508854       0.99729443       0.87902968 </v>
    <v>       0.75491146       0.50270557       0.37902968 </v>
    <v>       0.74508854       0.49729443       0.87902968 </v>
    <v>       0.75711612       0.74119062       0.25000000 </v>
    <v>       0.50132758       0.00043230       0.00256113 </v>
    <v>       0.25000000       0.75000000       0.00000000 </v>
    <v>       0.99867242       0.49956770       0.99743887 </v>
    <v>       0.50132758       0.50043230       0.49743887 </v>
    <v>       0.25000000       0.25000000       0.50000000 </v>
    <v>       0.25000000       0.75000000       0.50000000 </v>
    <v>       0.99867242       0.99956770       0.50256113 </v>
    <v>       0.75711612       0.24119062       0.25000000 </v>
    <v>       0.25000000       0.25000000       0.00000000 </v>
    <v>       0.74288388       0.75880938       0.75000000 </v>
    <v>       0.50132758       0.50043230       0.00256113 </v>
    <v>       0.50132758       0.00043230       0.49743887 </v>
    <v>       0.99867242       0.49956770       0.50256113 </v>
    <v>       0.74288388       0.25880938       0.75000000 </v>
    <v>       0.99867242       0.99956770       0.99743887 </v>
    <v>       0.52390023       0.99045890       0.25000000 </v>
    <v>       0.52390023       0.49045890       0.25000000 </v>
    <v>       0.99198154       0.48566426       0.25000000 </v>
    <v>       0.99198154       0.98566426       0.25000000 </v>
    <v>       0.25605228       0.79184079       0.25000000 </v>
    <v>       0.75000000       0.25000000       0.00000000 </v>
    <v>       0.75000000       0.75000000       0.50000000 </v>
    <v>       0.25605228       0.29184079       0.25000000 </v>
    <v>       0.24394772       0.20815921       0.75000000 </v>
    <v>       0.24394772       0.70815921       0.75000000 </v>
    <v>       0.75000000       0.75000000       0.00000000 </v>
    <v>       0.50801846       0.51433574       0.75000000 </v>
    <v>       0.75000000       0.25000000       0.50000000 </v>
    <v>       0.97609977       0.00954110       0.75000000 </v>
    <v>       0.50801846       0.01433574       0.75000000 </v>
    <v>       0.97609977       0.50954110       0.75000000 </v>
    <v>       0.01076178       0.01703761       0.12476929 </v>
    <v>       0.01974336       0.97992460       0.63084646 </v>
    <v>       0.01076178       0.51703761       0.12476929 </v>
    <v>       0.01974336       0.47992460       0.63084646 </v>
    <v>       0.48025664       0.02007540       0.13084646 </v>
    <v>       0.48923822       0.98296239       0.62476929 </v>
    <v>       0.48025664       0.52007540       0.13084646 </v>
    <v>       0.48923822       0.48296239       0.62476929 </v>
    <v>       0.01076178       0.01703761       0.37523071 </v>
    <v>       0.01974336       0.97992460       0.86915354 </v>
    <v>       0.01076178       0.51703761       0.37523071 </v>
    <v>       0.01974336       0.47992460       0.86915354 </v>
    <v>       0.48025664       0.02007540       0.36915354 </v>
    <v>       0.48923822       0.98296239       0.87523071 </v>
    <v>       0.48025664       0.52007540       0.36915354 </v>
    <v>       0.48923822       0.48296239       0.87523071 </v>
    <v>       0.23932578       0.22511931       0.36186918 </v>
    <v>       0.26067422       0.27488069       0.86186918 </v>
    <v>       0.23932578       0.72511931       0.36186918 </v>
    <v>       0.26067422       0.77488069       0.86186918 </v>
    <v>       0.75721606       0.23823830       0.37511375 </v>
    <v>       0.74278394       0.26176170       0.87511375 </v>
    <v>       0.75721606       0.73823830       0.37511375 </v>
    <v>       0.74278394       0.76176170       0.87511375 </v>
    <v>       0.23932578       0.22511931       0.13813082 </v>
    <v>       0.26067422       0.27488069       0.63813082 </v>
    <v>       0.23932578       0.72511931       0.13813082 </v>
    <v>       0.26067422       0.77488069       0.63813082 </v>
    <v>       0.75721606       0.23823830       0.12488625 </v>
    <v>       0.74278394       0.26176170       0.62488625 </v>
    <v>       0.75721606       0.73823830       0.12488625 </v>
    <v>       0.74278394       0.76176170       0.62488625 </v>
    <v>       0.61053856       0.14237616       0.25000000 </v>
    <v>       0.86418155       0.10181823       0.25000000 </v>
    <v>       0.16066324       0.42923050       0.25000000 </v>
    <v>       0.40997676       0.35155270       0.25000000 </v>
    <v>       0.65926223       0.39187650       0.25000000 </v>
    <v>       0.90804620       0.34223336       0.25000000 </v>
    <v>       0.61053856       0.64237616       0.25000000 </v>
    <v>       0.86418155       0.60181823       0.25000000 </v>
    <v>       0.16066324       0.92923050       0.25000000 </v>
    <v>       0.40997676       0.85155270       0.25000000 </v>
    <v>       0.65926223       0.89187650       0.25000000 </v>
    <v>       0.90804620       0.84223336       0.25000000 </v>
    <v>       0.12997321       0.12614265       0.51024906 </v>
    <v>       0.37359891       0.12880029       0.50625810 </v>
    <v>       0.62319444       0.11985846       0.50393720 </v>
    <v>       0.88078042       0.12401620       0.51133824 </v>
    <v>       0.12640109       0.37119971       0.49374190 </v>
    <v>       0.37002679       0.37385735       0.48975094 </v>
    <v>       0.61921958       0.37598380       0.48866176 </v>
    <v>       0.87680556       0.38014154       0.49606280 </v>
    <v>       0.12997321       0.62614265       0.51024906 </v>
    <v>       0.37359891       0.62880029       0.50625810 </v>
    <v>       0.62319444       0.61985846       0.50393720 </v>
    <v>       0.88078042       0.62401620       0.51133824 </v>
    <v>       0.12640109       0.87119971       0.49374190 </v>
    <v>       0.37002679       0.87385735       0.48975094 </v>
    <v>       0.61921958       0.87598380       0.48866176 </v>
    <v>       0.87680556       0.88014154       0.49606280 </v>
    <v>       0.09002324       0.14844730       0.75000000 </v>
    <v>       0.33933676       0.07076950       0.75000000 </v>
    <v>       0.59195380       0.15776664       0.75000000 </v>
    <v>       0.84073777       0.10812350       0.75000000 </v>
    <v>       0.63581845       0.39818177       0.75000000 </v>
    <v>       0.88946144       0.35762384       0.75000000 </v>
    <v>       0.09002324       0.64844730       0.75000000 </v>
    <v>       0.33933676       0.57076950       0.75000000 </v>
    <v>       0.59195380       0.65776664       0.75000000 </v>
    <v>       0.84073777       0.60812350       0.75000000 </v>
    <v>       0.63581845       0.89818177       0.75000000 </v>
    <v>       0.88946144       0.85762384       0.75000000 </v>
    <v>       0.12997321       0.12614265       0.98975094 </v>
    <v>       0.37359891       0.12880029       0.99374190 </v>
    <v>       0.62319444       0.11985846       0.99606280 </v>
    <v>       0.88078042       0.12401620       0.98866176 </v>
    <v>       0.12640109       0.37119971       0.00625810 </v>
    <v>       0.37002679       0.37385735       0.01024906 </v>
    <v>       0.61921958       0.37598380       0.01133824 </v>
    <v>       0.87680556       0.38014154       0.00393720 </v>
    <v>       0.12997321       0.62614265       0.98975094 </v>
    <v>       0.37359891       0.62880029       0.99374190 </v>
    <v>       0.62319444       0.61985846       0.99606280 </v>
    <v>       0.88078042       0.62401620       0.98866176 </v>
    <v>       0.12640109       0.87119971       0.00625810 </v>
    <v>       0.37002679       0.87385735       0.01024906 </v>
    <v>       0.61921958       0.87598380       0.01133824 </v>
    <v>       0.87680556       0.88014154       0.00393720 </v>
   </varray>
  </structure>
  <varray name="forces" >
   <v>       0.05154163      -0.00737495      -0.01686207 </v>
   <v>       0.05054340       0.03485673      -0.02448863 </v>
   <v>       0.05154163      -0.00737495      -0.01686207 </v>
   <v>       0.05054340       0.03485673      -0.02448863 </v>
   <v>      -0.05054340      -0.03485673      -0.02448863 </v>
   <v>      -0.05154163       0.00737495      -0.01686207 </v>
   <v>      -0.05054340      -0.03485673      -0.02448863 </v>
   <v>      -0.05154163       0.00737495      -0.01686207 </v>
   <v>       0.05154163      -0.00737495       0.01686207 </v>
   <v>       0.05054340       0.03485673       0.02448863 </v>
   <v>       0.05154163      -0.00737495       0.01686207 </v>
   <v>       0.05054340       0.03485673       0.02448863 </v>
   <v>      -0.05054340      -0.03485673       0.02448863 </v>
   <v>      -0.05154163       0.00737495       0.01686207 </v>
   <v>      -0.05054340      -0.03485673       0.02448863 </v>
   <v>      -0.05154163       0.00737495       0.01686207 </v>
   <v>       0.13285745      -0.16543523      -0.15880329 </v>
   <v>      -0.13285745       0.16543523      -0.15880329 </v>
   <v>       0.13285745      -0.16543523      -0.15880329 </v>
   <v>      -0.13285745       0.16543523      -0.15880329 </v>
   <v>       0.05475455      -0.04495812       0.01576192 </v>
   <v>      -0.05475455       0.04495812       0.01576192 </v>
   <v>       0.05475455      -0.04495812       0.01576192 </v>
   <v>      -0.05475455       0.04495812       0.01576192 </v>
   <v>       0.13285745      -0.16543523       0.15880329 </v>
   <v>      -0.13285745       0.16543523       0.15880329 </v>
   <v>       0.13285745      -0.16543523       0.15880329 </v>
   <v>      -0.13285745       0.16543523       0.15880329 </v>
   <v>       0.05475455      -0.04495812      -0.01576192 </v>
   <v>      -0.05475455       0.04495812      -0.01576192 </v>
   <v>       0.05475455      -0.04495812      -0.01576192 </v>
   <v>      -0.05475455       0.04495812      -0.01576192 </v>
   <v>      -0.12695633       0.00298523       0.00000000 </v>
   <v>      -0.32102343      -0.01267517       0.23066650 </v>
   <v>       0.00000000       0.00000000       0.00000000 </v>
   <v>       0.32102343       0.01267517      -0.23066650 </v>
   <v>      -0.32102343      -0.01267517      -0.23066650 </v>
   <v>       0.00000000       0.00000000       0.00000000 </v>
   <v>       0.00000000       0.00000000       0.00000000 </v>
   <v>       0.32102343       0.01267517       0.23066650 </v>
   <v>      -0.12695633       0.00298523       0.00000000 </v>
   <v>       0.00000000       0.00000000       0.00000000 </v>
   <v>       0.12695633      -0.00298523       0.00000000 </v>
   <v>      -0.32102343      -0.01267517       0.23066650 </v>
   <v>      -0.32102343      -0.01267517      -0.23066650 </v>
   <v>       0.32102343       0.01267517       0.23066650 </v>
   <v>       0.12695633      -0.00298523       0.00000000 </v>
   <v>       0.32102343       0.01267517      -0.23066650 </v>
   <v>      -0.31004394       0.07724034       0.00000000 </v>
   <v>      -0.31004394       0.07724034       0.00000000 </v>
   <v>       0.08592197       0.03743044       0.00000000 </v>
   <v>       0.08592197       0.03743044       0.00000000 </v>
   <v>       0.20030056       0.01700576       0.00000000 </v>
   <v>       0.00000000       0.00000000       0.00000000 </v>
   <v>       0.00000000       0.00000000       0.00000000 </v>
   <v>       0.20030056       0.01700576       0.00000000 </v>
   <v>      -0.20030056      -0.01700576       0.00000000 </v>
   <v>      -0.20030056      -0.01700576       0.00000000 </v>
   <v>       0.00000000       0.00000000       0.00000000 </v>
   <v>      -0.08592197      -0.03743044       0.00000000 </v>
   <v>       0.00000000       0.00000000       0.00000000 </v>
   <v>       0.31004394      -0.07724034       0.00000000 </v>
   <v>      -0.08592197      -0.03743044       0.00000000 </v>
   <v>       0.31004394      -0.07724034       0.00000000 </v>
   <v>      -0.10844048      -0.01213522      -0.08191043 </v>
   <v>      -0.14770870       0.00080634      -0.17171548 </v>
   <v>      -0.10844048      -0.01213522      -0.08191043 </v>
   <v>      -0.14770870       0.00080634      -0.17171548 </v>
   <v>       0.14770870      -0.00080634      -0.17171548 </v>
   <v>       0.10844048       0.01213522      -0.08191043 </v>
   <v>       0.14770870      -0.00080634      -0.17171548 </v>
   <v>       0.10844048       0.01213522      -0.08191043 </v>
   <v>      -0.10844048      -0.01213522       0.08191043 </v>
   <v>      -0.14770870       0.00080634       0.17171548 </v>
   <v>      -0.10844048      -0.01213522       0.08191043 </v>
   <v>      -0.14770870       0.00080634       0.17171548 </v>
   <v>       0.14770870      -0.00080634       0.17171548 </v>
   <v>       0.10844048       0.01213522       0.08191043 </v>
   <v>       0.14770870      -0.00080634       0.17171548 </v>
   <v>       0.10844048       0.01213522       0.08191043 </v>
   <v>      -0.09660689       0.10412828       0.06439621 </v>
   <v>       0.09660689      -0.10412828       0.06439621 </v>
   <v>      -0.09660689       0.10412828       0.06439621 </v>
   <v>       0.09660689      -0.10412828       0.06439621 </v>
   <v>       0.01713622       0.05088767       0.22902224 </v>
   <v>      -0.01713622      -0.05088767       0.22902224 </v>
   <v>       0.01713622       0.05088767       0.22902224 </v>
   <v>      -0.01713622      -0.05088767       0.22902224 </v>
   <v>      -0.09660689       0.10412828      -0.06439621 </v>
   <v>       0.09660689      -0.10412828      -0.06439621 </v>
   <v>      -0.09660689       0.10412828      -0.06439621 </v>
   <v>       0.09660689      -0.10412828      -0.06439621 </v>
   <v>       0.01713622       0.05088767      -0.22902224 </v>
   <v>      -0.01713622      -0.05088767      -0.22902224 </v>
   <v>       0.01713622       0.05088767      -0.22902224 </v>
   <v>      -0.01713622      -0.05088767      -0.22902224 </v>
   <v>       0.30299544       0.08672004       0.00000000 </v>
   <v>       0.01716823      -0.02946764       0.00000000 </v>
   <v>      -0.00833925      -0.03616691       0.00000000 </v>
   <v>      -0.17184207      -0.17235500       0.00000000 </v>
   <v>       0.09382119      -0.09468255       0.00000000 </v>
   <v>       0.11466979      -0.01294134       0.00000000 </v>
   <v>       0.30299544       0.08672004       0.00000000 </v>
   <v>       0.01716823      -0.02946764       0.00000000 </v>
   <v>      -0.00833925      -0.03616691       0.00000000 </v>
   <v>      -0.17184207      -0.17235500       0.00000000 </v>
   <v>       0.09382119      -0.09468255       0.00000000 </v>
   <v>       0.11466979      -0.01294134       0.00000000 </v>
   <v>       0.01918779       0.00685517       0.01013505 </v>
   <v>      -0.04911277       0.06752210       0.04869528 </v>
   <v>       0.17914439       0.20505843      -0.01721318 </v>
   <v>      -0.13833279       0.17039062      -0.02476533 </v>
   <v>       0.04911277      -0.06752210      -0.04869528 </v>
   <v>      -0.01918779      -0.00685517      -0.01013505 </v>
   <v>       0.13833279      -0.17039062       0.02476533 </v>
   <v>      -0.17914439      -0.20505843       0.01721318 </v>
   <v>       0.01918779       0.00685517       0.01013505 </v>
   <v>      -0.04911277       0.06752210       0.04869528 </v>
   <v>       0.17914439       0.20505843      -0.01721318 </v>
   <v>      -0.13833279       0.17039062      -0.02476533 </v>
   <v>       0.04911277      -0.06752210      -0.04869528 </v>
   <v>      -0.01918779      -0.00685517      -0.01013505 </v>
   <v>       0.13833279      -0.17039062       0.02476533 </v>
   <v>      -0.17914439      -0.20505843       0.01721318 </v>
   <v>       0.17184207       0.17235500       0.00000000 </v>
   <v>       0.00833925       0.03616691       0.00000000 </v>
   <v>      -0.11466979       0.01294134       0.00000000 </v>
   <v>      -0.09382119       0.09468255       0.00000000 </v>
   <v>      -0.01716823       0.02946764       0.00000000 </v>
   <v>      -0.30299544      -0.08672004       0.00000000 </v>
   <v>       0.17184207       0.17235500       0.00000000 </v>
   <v>       0.00833925       0.03616691       0.00000000 </v>
   <v>      -0.11466979       0.01294134       0.00000000 </v>
   <v>      -0.09382119       0.09468255       0.00000000 </v>
   <v>      -0.01716823       0.02946764       0.00000000 </v>
   <v>      -0.30299544      -0.08672004       0.00000000 </v>
   <v>       0.01918779       0.00685517      -0.01013505 </v>
   <v>      -0.04911277       0.06752210      -0.04869528 </v>
   <v>       0.17914439       0.20505843       0.01721318 </v>
   <v>      -0.13833279       0.17039062       0.02476533 </v>
   <v>       0.04911277      -0.06752210       0.04869528 </v>
   <v>      -0.01918779      -0.00685517       0.01013505 </v>
   <v>       0.13833279      -0.17039062      -0.02476533 </v>
   <v>      -0.17914439      -0.20505843      -0.01721318 </v>
   <v>       0.01918779       0.00685517      -0.01013505 </v>
   <v>      -0.04911277       0.06752210      -0.04869528 </v>
   <v>       0.17914439       0.20505843       0.01721318 </v>
   <v>      -0.13833279       0.17039062       0.02476533 </v>
   <v>       0.04911277      -0.06752210       0.04869528 </v>
   <v>      -0.01918779      -0.00685517       0.01013505 </v>
   <v>       0.13833279      -0.17039062      -0.02476533 </v>
   <v>      -0.17914439      -0.20505843      -0.01721318 </v>
  </varray>
  <varray name="stress" >
   <v>       3.54540142      -0.73174383       0.00000000 </v>
   <v>      -0.73174349      14.82660033       0.00000000 </v>
   <v>       0.00000000       0.00000000       6.94463511 </v>
  </varray>
  <energy>
   <i name="e_fr_energy">  -1057.99092428 </i>
   <i name="e_wo_entrp">  -1057.99092428 </i>
   <i name="e_0_energy">     -0.00000000 </i>
  </energy>
  <time name="totalsc">  555.32  557.59</time>
 </calculation>
 <calculation>
  <scstep>
   <time name="dav">  143.85  143.94</time>
   <time name="total">  146.33  146.43</time>
   <energy>
    <i name="alphaZ">   5585.69895557 </i>
    <i name="ewald"> -62091.24594544 </i>
    <i name="hartreedc"> -17295.74094535 </i>
    <i name="XCdc">   3175.51912621 </i>
    <i name="pawpsdc"> 118033.13566158 </i>
    <i name="pawaedc">-117236.09864129 </i>
    <i name="eentropy">     -0.00000000 </i>
    <i name="bandstr">  -7280.03280771 </i>
    <i name="atom">  76050.17612637 </i>
    <i name="e_fr_energy">  -1058.58847005 </i>
    <i name="e_wo_entrp">  -1058.58847005 </i>
    <i name="e_0_energy">  -1058.58847005 </i>
   </energy>
  </scstep>
  <scstep>
   <time name="diag">   16.51   16.52</time>
   <time name="diis">   26.06   26.06</time>
   <time name="orth">    9.40    9.40</time>
   <time name="total">   54.45   54.50</time>
   <energy>
    <i name="e_fr_energy">  -1058.23929265 </i>
    <i name="e_wo_entrp">  -1058.23929265 </i>
    <i name="e_0_energy">  -1058.23929265 </i>
   </energy>
  </scstep>
  <scstep>
   <time name="diag">   16.53   16.54</time>
   <time name="diis">   26.87   26.87</time>
   <time name="orth">    9.40    9.40</time>
   <time name="total">   55.28   55.31</time>
   <energy>
    <i name="e_fr_energy">  -1058.12089447 </i>
    <i name="e_wo_entrp">  -1058.12089447 </i>
    <i name="e_0_energy">  -1058.12089447 </i>
   </energy>
  </scstep>
  <scstep>
   <time name="diag">   16.54   16.55</time>
   <time name="diis">   27.11   27.13</time>
   <time name="orth">    9.38    9.38</time>
   <time name="total">   55.50   55.62</time>
   <energy>
    <i name="e_fr_energy">  -1058.07204497 </i>
    <i name="e_wo_entrp">  -1058.07204497 </i>
    <i name="e_0_energy">  -1058.07204497 </i>
   </energy>
  </scstep>
  <scstep>
   <time name="diag">   16.53   16.55</time>
   <time name="diis">   28.42   28.42</time>
   <time name="orth">    9.38    9.39</time>
   <time name="total">   56.82   56.86</time>
   <energy>
    <i name="e_fr_energy">  -1058.06533679 </i>
    <i name="e_wo_entrp">  -1058.06533679 </i>
    <i name="e_0_energy">  -1058.06533679 </i>
   </energy>
  </scstep>
  <scstep>
   <time name="diag">   16.55   16.56</time>
   <time name="diis">   36.51   36.51</time>
   <time name="orth">    9.41    9.41</time>
   <time name="total">   64.95   64.96</time>
   <energy>
    <i name="e_fr_energy">  -1058.06596288 </i>
    <i name="e_wo_entrp">  -1058.06596288 </i>
    <i name="e_0_energy">  -1058.06596288 </i>
   </energy>
  </scstep>
  <scstep>
   <time name="diag">   16.50   16.52</time>
   <time name="diis">   35.62   35.62</time>
   <time name="orth">    9.35    9.35</time>
   <time name="total">   63.98   64.10</time>
   <energy>
    <i name="e_fr_energy">  -1058.06635030 </i>
    <i name="e_wo_entrp">  -1058.06635030 </i>
    <i name="e_0_energy">  -1058.06635030 </i>
   </energy>
  </scstep>
  <scstep>
   <time name="diag">   16.51   16.51</time>
   <time name="diis">   34.23   34.23</time>
   <time name="orth">    9.38    9.38</time>
   <time name="total">   62.59   62.61</time>
   <energy>
    <i name="e_fr_energy">  -1058.06641132 </i>
    <i name="e_wo_entrp">  -1058.06641132 </i>
    <i name="e_0_energy">  -1058.06641132 </i>
   </energy>
  </scstep>
  <scstep>
   <time name="diag">   16.52   16.54</time>
   <time name="diis">   27.26   27.28</time>
   <time name="orth">    9.37    9.37</time>
   <time name="total">   53.72   53.77</time>
   <energy>
    <i name="alphaZ">   5585.69895557 </i>
    <i name="ewald"> -62091.24594544 </i>
    <i name="hartreedc"> -17442.75679001 </i>
    <i name="XCdc">   3185.33629051 </i>
    <i name="pawpsdc"> 115812.93096249 </i>
    <i name="pawaedc">-115015.34938996 </i>
    <i name="eentropy">     -0.00000000 </i>
    <i name="bandstr">  -7142.85659894 </i>
    <i name="atom">  76050.17612637 </i>
    <i name="e_fr_energy">  -1058.06638940 </i>
    <i name="e_wo_entrp">  -1058.06638940 </i>
    <i name="e_0_energy">  -1058.06638940 </i>
   </energy>
  </scstep>
  <structure>
   <crystal>
    <varray name="basis" >
     <v>      11.32189696       0.01601836       0.00000000 </v>
     <v>       0.01632316      11.37907542       0.00000000 </v>
     <v>       0.00000000       0.00000000      15.65027104 </v>
    </varray>
    <i name="volume">   2016.26288528 </i>
    <varray name="rec_basis" >
     <v>       0.08832460      -0.00012670       0.00000000 </v>
     <v>      -0.00012433       0.08788078       0.00000000 </v>
     <v>       0.00000000       0.00000000       0.06389666 </v>
    </varray>
   </crystal>
   <varray name="positions" >
    <v>       0.99291436       0.24594964       0.11432497 </v>
    <v>       0.99059221       0.25154526       0.62430726 </v>
    <v>       0.99291436       0.74594964       0.11432497 </v>
    <v>       0.99059221       0.75154526       0.62430726 </v>
    <v>       0.50940779       0.24845474       0.12430726 </v>
    <v>       0.50708564       0.25405036       0.61432497 </v>
    <v>       0.50940779       0.74845474       0.12430726 </v>
    <v>       0.50708564       0.75405036       0.61432497 </v>
    <v>       0.99291436       0.24594964       0.38567503 </v>
    <v>       0.99059221       0.25154526       0.87569274 </v>
    <v>       0.99291436       0.74594964       0.38567503 </v>
    <v>       0.99059221       0.75154526       0.87569274 </v>
    <v>       0.50940779       0.24845474       0.37569274 </v>
    <v>       0.50708564       0.25405036       0.88567503 </v>
    <v>       0.50940779       0.74845474       0.37569274 </v>
    <v>       0.50708564       0.75405036       0.88567503 </v>
    <v>       0.24661086       0.00632402       0.11504451 </v>
    <v>       0.25338914       0.99367598       0.61504451 </v>
    <v>       0.24661086       0.50632402       0.11504451 </v>
    <v>       0.25338914       0.49367598       0.61504451 </v>
    <v>       0.75514543       0.00251345       0.12101904 </v>
    <v>       0.74485457       0.99748655       0.62101904 </v>
    <v>       0.75514543       0.50251345       0.12101904 </v>
    <v>       0.74485457       0.49748655       0.62101904 </v>
    <v>       0.24661086       0.00632402       0.38495549 </v>
    <v>       0.25338914       0.99367598       0.88495549 </v>
    <v>       0.24661086       0.50632402       0.38495549 </v>
    <v>       0.25338914       0.49367598       0.88495549 </v>
    <v>       0.75514543       0.00251345       0.37898096 </v>
    <v>       0.74485457       0.99748655       0.87898096 </v>
    <v>       0.75514543       0.50251345       0.37898096 </v>
    <v>       0.74485457       0.49748655       0.87898096 </v>
    <v>       0.75657438       0.74120427       0.25000000 </v>
    <v>       0.49995787       0.00038057       0.00327412 </v>
    <v>       0.25000000       0.75000000       0.00000000 </v>
    <v>       0.00004213       0.49961943       0.99672588 </v>
    <v>       0.49995787       0.50038057       0.49672588 </v>
    <v>       0.25000000       0.25000000       0.50000000 </v>
    <v>       0.25000000       0.75000000       0.50000000 </v>
    <v>       0.00004213       0.99961943       0.50327412 </v>
    <v>       0.75657438       0.24120427       0.25000000 </v>
    <v>       0.25000000       0.25000000       0.00000000 </v>
    <v>       0.74342562       0.75879573       0.75000000 </v>
    <v>       0.49995787       0.50038057       0.00327412 </v>
    <v>       0.49995787       0.00038057       0.49672588 </v>
    <v>       0.00004213       0.49961943       0.50327412 </v>
    <v>       0.74342562       0.25879573       0.75000000 </v>
    <v>       0.00004213       0.99961943       0.99672588 </v>
    <v>       0.52257671       0.99079053       0.25000000 </v>
    <v>       0.52257671       0.49079053       0.25000000 </v>
    <v>       0.99234789       0.48582326       0.25000000 </v>
    <v>       0.99234789       0.98582326       0.25000000 </v>
    <v>       0.25690684       0.79191186       0.25000000 </v>
    <v>       0.75000000       0.25000000       0.00000000 </v>
    <v>       0.75000000       0.75000000       0.50000000 </v>
    <v>       0.25690684       0.29191186       0.25000000 </v>
    <v>       0.24309316       0.20808814       0.75000000 </v>
    <v>       0.24309316       0.70808814       0.75000000 </v>
    <v>       0.75000000       0.75000000       0.00000000 </v>
    <v>       0.50765211       0.51417674       0.75000000 </v>
    <v>       0.75000000       0.25000000       0.50000000 </v>
    <v>       0.97742329       0.00920947       0.75000000 </v>
    <v>       0.50765211       0.01417674       0.75000000 </v>
    <v>       0.97742329       0.50920947       0.75000000 </v>
    <v>       0.01029916       0.01698665       0.12451610 </v>
    <v>       0.01911308       0.97992911       0.63031569 </v>
    <v>       0.01029916       0.51698665       0.12451610 </v>
    <v>       0.01911308       0.47992911       0.63031569 </v>
    <v>       0.48088692       0.02007089       0.13031569 </v>
    <v>       0.48970084       0.98301335       0.62451610 </v>
    <v>       0.48088692       0.52007089       0.13031569 </v>
    <v>       0.48970084       0.48301335       0.62451610 </v>
    <v>       0.01029916       0.01698665       0.37548390 </v>
    <v>       0.01911308       0.97992911       0.86968431 </v>
    <v>       0.01029916       0.51698665       0.37548390 </v>
    <v>       0.01911308       0.47992911       0.86968431 </v>
    <v>       0.48088692       0.02007089       0.36968431 </v>
    <v>       0.48970084       0.98301335       0.87548390 </v>
    <v>       0.48088692       0.52007089       0.36968431 </v>
    <v>       0.48970084       0.48301335       0.87548390 </v>
    <v>       0.23891279       0.22556406       0.36206823 </v>
    <v>       0.26108721       0.27443594       0.86206823 </v>
    <v>       0.23891279       0.72556406       0.36206823 </v>
    <v>       0.26108721       0.77443594       0.86206823 </v>
    <v>       0.75728881       0.23845519       0.37582166 </v>
    <v>       0.74271119       0.26154481       0.87582166 </v>
    <v>       0.75728881       0.73845519       0.37582166 </v>
    <v>       0.74271119       0.76154481       0.87582166 </v>
    <v>       0.23891279       0.22556406       0.13793177 </v>
    <v>       0.26108721       0.27443594       0.63793177 </v>
    <v>       0.23891279       0.72556406       0.13793177 </v>
    <v>       0.26108721       0.77443594       0.63793177 </v>
    <v>       0.75728881       0.23845519       0.12417834 </v>
    <v>       0.74271119       0.26154481       0.62417834 </v>
    <v>       0.75728881       0.73845519       0.12417834 </v>
    <v>       0.74271119       0.76154481       0.62417834 </v>
    <v>       0.61183080       0.14274378       0.25000000 </v>
    <v>       0.86425502       0.10169245       0.25000000 </v>
    <v>       0.16062793       0.42907633       0.25000000 </v>
    <v>       0.40924478       0.35081894       0.25000000 </v>
    <v>       0.65966327       0.39147205       0.25000000 </v>
    <v>       0.90853559       0.34217734       0.25000000 </v>
    <v>       0.61183080       0.64274378       0.25000000 </v>
    <v>       0.86425502       0.60169245       0.25000000 </v>
    <v>       0.16062793       0.92907633       0.25000000 </v>
    <v>       0.40924478       0.85081894       0.25000000 </v>
    <v>       0.65966327       0.89147205       0.25000000 </v>
    <v>       0.90853559       0.84217734       0.25000000 </v>
    <v>       0.13005503       0.12617174       0.51028039 </v>
    <v>       0.37338884       0.12908859       0.50640861 </v>
    <v>       0.62395733       0.12073163       0.50388399 </v>
    <v>       0.88018890       0.12474382       0.51126169 </v>
    <v>       0.12661116       0.37091141       0.49359139 </v>
    <v>       0.36994497       0.37382826       0.48971961 </v>
    <v>       0.61981110       0.37525618       0.48873831 </v>
    <v>       0.87604267       0.37926837       0.49611601 </v>
    <v>       0.13005503       0.62617174       0.51028039 </v>
    <v>       0.37338884       0.62908859       0.50640861 </v>
    <v>       0.62395733       0.62073163       0.50388399 </v>
    <v>       0.88018890       0.62474382       0.51126169 </v>
    <v>       0.12661116       0.87091141       0.49359139 </v>
    <v>       0.36994497       0.87382826       0.48971961 </v>
    <v>       0.61981110       0.87525618       0.48873831 </v>
    <v>       0.87604267       0.87926837       0.49611601 </v>
    <v>       0.09075522       0.14918106       0.75000000 </v>
    <v>       0.33937207       0.07092367       0.75000000 </v>
    <v>       0.59146441       0.15782266       0.75000000 </v>
    <v>       0.84033673       0.10852795       0.75000000 </v>
    <v>       0.63574498       0.39830755       0.75000000 </v>
    <v>       0.88816920       0.35725622       0.75000000 </v>
    <v>       0.09075522       0.64918106       0.75000000 </v>
    <v>       0.33937207       0.57092367       0.75000000 </v>
    <v>       0.59146441       0.65782266       0.75000000 </v>
    <v>       0.84033673       0.60852795       0.75000000 </v>
    <v>       0.63574498       0.89830755       0.75000000 </v>
    <v>       0.88816920       0.85725622       0.75000000 </v>
    <v>       0.13005503       0.12617174       0.98971961 </v>
    <v>       0.37338884       0.12908859       0.99359139 </v>
    <v>       0.62395733       0.12073163       0.99611601 </v>
    <v>       0.88018890       0.12474382       0.98873831 </v>
    <v>       0.12661116       0.37091141       0.00640861 </v>
    <v>       0.36994497       0.37382826       0.01028039 </v>
    <v>       0.61981110       0.37525618       0.01126169 </v>
    <v>       0.87604267       0.37926837       0.00388399 </v>
    <v>       0.13005503       0.62617174       0.98971961 </v>
    <v>       0.37338884       0.62908859       0.99359139 </v>
    <v>       0.62395733       0.62073163       0.99611601 </v>
    <v>       0.88018890       0.62474382       0.98873831 </v>
    <v>       0.12661116       0.87091141       0.00640861 </v>
    <v>       0.36994497       0.87382826       0.01028039 </v>
    <v>       0.61981110       0.87525618       0.01126169 </v>
    <v>       0.87604267       0.87926837       0.00388399 </v>
   </varray>
  </structure>
  <varray name="forces" >
   <v>      -0.08379341      -0.01685855      -0.01501641 </v>
   <v>      -0.10291587       0.03563499      -0.10002312 </v>
   <v>      -0.08379341      -0.01685855      -0.01501641 </v>
   <v>      -0.10291587       0.03563499      -0.10002312 </v>
   <v>       0.10291587      -0.03563499      -0.10002312 </v>
   <v>       0.08379341       0.01685855      -0.01501641 </v>
   <v>       0.10291587      -0.03563499      -0.10002312 </v>
   <v>       0.08379341       0.01685855      -0.01501641 </v>
   <v>      -0.08379341      -0.01685855       0.01501641 </v>
   <v>      -0.10291587       0.03563499       0.10002312 </v>
   <v>      -0.08379341      -0.01685855       0.01501641 </v>
   <v>      -0.10291587       0.03563499       0.10002312 </v>
   <v>       0.10291587      -0.03563499       0.10002312 </v>
   <v>       0.08379341       0.01685855       0.01501641 </v>
   <v>       0.10291587      -0.03563499       0.10002312 </v>
   <v>       0.08379341       0.01685855       0.01501641 </v>
   <v>      -0.02507724      -0.08969719      -0.04639000 </v>
   <v>       0.02507724       0.08969719      -0.04639000 </v>
   <v>      -0.02507724      -0.08969719      -0.04639000 </v>
   <v>       0.02507724       0.08969719      -0.04639000 </v>
   <v>       0.11507117      -0.02601892      -0.06683674 </v>
   <v>      -0.11507117       0.02601892      -0.06683674 </v>
   <v>       0.11507117      -0.02601892      -0.06683674 </v>
   <v>      -0.11507117       0.02601892      -0.06683674 </v>
   <v>      -0.02507724      -0.08969719       0.04639000 </v>
   <v>       0.02507724       0.08969719       0.04639000 </v>
   <v>      -0.02507724      -0.08969719       0.04639000 </v>
   <v>       0.02507724       0.08969719       0.04639000 </v>
   <v>       0.11507117      -0.02601892       0.06683674 </v>
   <v>      -0.11507117       0.02601892       0.06683674 </v>
   <v>       0.11507117      -0.02601892       0.06683674 </v>
   <v>      -0.11507117       0.02601892       0.06683674 </v>
   <v>       0.18557431      -0.04103064       0.00000000 </v>
   <v>       0.47219254      -0.01442610      -0.14988725 </v>
   <v>      -0.00000000       0.00000000       0.00000000 </v>
   <v>      -0.47219254       0.01442610       0.14988725 </v>
   <v>       0.47219254      -0.01442610       0.14988725 </v>
   <v>      -0.00000000       0.00000000       0.00000000 </v>
   <v>      -0.00000000       0.00000000       0.00000000 </v>
   <v>      -0.47219254       0.01442610      -0.14988725 </v>
   <v>       0.18557431      -0.04103064       0.00000000 </v>
   <v>      -0.00000000       0.00000000       0.00000000 </v>
   <v>      -0.18557431       0.04103064       0.00000000 </v>
   <v>       0.47219254      -0.01442610      -0.14988725 </v>
   <v>       0.47219254      -0.01442610       0.14988725 </v>
   <v>      -0.47219254       0.01442610      -0.14988725 </v>
   <v>      -0.18557431       0.04103064       0.00000000 </v>
   <v>      -0.47219254       0.01442610       0.14988725 </v>
   <v>       0.13138115      -0.05214747       0.00000000 </v>
   <v>       0.13138115      -0.05214747       0.00000000 </v>
   <v>      -0.07074611      -0.04248972       0.00000000 </v>
   <v>      -0.07074611      -0.04248972       0.00000000 </v>
   <v>      -0.20986822       0.01981702       0.00000000 </v>
   <v>      -0.00000000       0.00000000       0.00000000 </v>
   <v>      -0.00000000       0.00000000       0.00000000 </v>
   <v>      -0.20986822       0.01981702       0.00000000 </v>
   <v>       0.20986822      -0.01981702       0.00000000 </v>
   <v>       0.20986822      -0.01981702       0.00000000 </v>
   <v>      -0.00000000       0.00000000       0.00000000 </v>
   <v>       0.07074611       0.04248972       0.00000000 </v>
   <v>      -0.00000000       0.00000000       0.00000000 </v>
   <v>      -0.13138115       0.05214747       0.00000000 </v>
   <v>       0.07074611       0.04248972       0.00000000 </v>
   <v>      -0.13138115       0.05214747       0.00000000 </v>
   <v>      -0.01242708      -0.02563985      -0.16607204 </v>
   <v>      -0.06079983       0.00242780       0.09200546 </v>
   <v>      -0.01242708      -0.02563985      -0.16607204 </v>
   <v>      -0.06079983       0.00242780       0.09200546 </v>
   <v>       0.06079983      -0.00242780       0.09200546 </v>
   <v>       0.01242708       0.02563985      -0.16607204 </v>
   <v>       0.06079983      -0.00242780       0.09200546 </v>
   <v>       0.01242708       0.02563985      -0.16607204 </v>
   <v>      -0.01242708      -0.02563985       0.16607204 </v>
   <v>      -0.06079983       0.00242780      -0.09200546 </v>
   <v>      -0.01242708      -0.02563985       0.16607204 </v>
   <v>      -0.06079983       0.00242780      -0.09200546 </v>
   <v>       0.06079983      -0.00242780      -0.09200546 </v>
   <v>       0.01242708       0.02563985       0.16607204 </v>
   <v>       0.06079983      -0.00242780      -0.09200546 </v>
   <v>       0.01242708       0.02563985       0.16607204 </v>
   <v>      -0.02753106       0.06539176       0.04520646 </v>
   <v>       0.02753106      -0.06539176       0.04520646 </v>
   <v>      -0.02753106       0.06539176       0.04520646 </v>
   <v>       0.02753106      -0.06539176       0.04520646 </v>
   <v>       0.01437658       0.02979789      -0.18172031 </v>
   <v>      -0.01437658      -0.02979789      -0.18172031 </v>
[...]
       <r>   -16.9075     0.0000    32.0000 </r>
       <r>   -16.7544     0.0000    32.0000 </r>
       <r>   -16.6014     0.0000    32.0000 </r>
       <r>   -16.4484     0.0000    32.0000 </r>
       <r>   -16.2954     0.0000    32.0000 </r>
       <r>   -16.1424     0.0000    32.0000 </r>
       <r>   -15.9894     0.0000    32.0000 </r>
       <r>   -15.8364     0.0000    32.0000 </r>
       <r>   -15.6834     0.0000    32.0000 </r>
       <r>   -15.5304     0.0000    32.0000 </r>
       <r>   -15.3773     0.0000    32.0000 </r>
       <r>   -15.2243     0.0880    32.0135 </r>
       <r>   -15.0713    14.2256    34.1901 </r>
       <r>   -14.9183    43.5149    40.8484 </r>
       <r>   -14.7653    44.2870    47.6249 </r>
       <r>   -14.6123    40.8132    53.8698 </r>
       <r>   -14.4593    29.3057    58.3539 </r>
       <r>   -14.3063    50.2397    66.0411 </r>
       <r>   -14.1533    71.5662    76.9916 </r>
       <r>   -14.0002   105.5467    93.1415 </r>
       <r>   -13.8472    94.2758   107.5667 </r>
       <r>   -13.6942    63.7431   117.3202 </r>
       <r>   -13.5412    17.5132   119.9999 </r>
       <r>   -13.3882     0.0005   120.0000 </r>
       <r>   -13.2352     0.0000   120.0000 </r>
       <r>   -13.0822     0.0000   120.0000 </r>
       <r>   -12.9292     0.0000   120.0000 </r>
       <r>   -12.7761     0.0700   120.0107 </r>
       <r>   -12.6231    31.8411   124.8828 </r>
       <r>   -12.4701   103.8971   140.7802 </r>
       <r>   -12.3171   140.7565   162.3176 </r>
       <r>   -12.1641   119.8641   180.6582 </r>
       <r>   -12.0111   115.1558   198.2784 </r>
       <r>   -11.8581    78.6537   210.3133 </r>
       <r>   -11.7051    36.2036   215.8529 </r>
       <r>   -11.5521     0.9614   216.0000 </r>
       <r>   -11.3990     0.0000   216.0000 </r>
       <r>   -11.2460     0.0000   216.0000 </r>
       <r>   -11.0930     0.0000   216.0000 </r>
       <r>   -10.9400     0.0000   216.0000 </r>
       <r>   -10.7870     0.0000   216.0000 </r>
       <r>   -10.6340     0.0000   216.0000 </r>
       <r>   -10.4810     0.0000   216.0000 </r>
       <r>   -10.3280     0.0000   216.0000 </r>
       <r>   -10.1749     0.0000   216.0000 </r>
       <r>   -10.0219     0.0000   216.0000 </r>
       <r>    -9.8689     0.0000   216.0000 </r>
       <r>    -9.7159     0.0000   216.0000 </r>
       <r>    -9.5629     0.0000   216.0000 </r>
       <r>    -9.4099     0.0000   216.0000 </r>
       <r>    -9.2569     0.0000   216.0000 </r>
       <r>    -9.1039     0.0000   216.0000 </r>
       <r>    -8.9509     0.0000   216.0000 </r>
       <r>    -8.7978     0.0000   216.0000 </r>
       <r>    -8.6448     0.0000   216.0000 </r>
       <r>    -8.4918     0.0000   216.0000 </r>
       <r>    -8.3388     0.0000   216.0000 </r>
       <r>    -8.1858     0.0000   216.0000 </r>
       <r>    -8.0328     0.0000   216.0000 </r>
       <r>    -7.8798     0.0000   216.0000 </r>
       <r>    -7.7268     0.0000   216.0000 </r>
       <r>    -7.5738     0.0000   216.0000 </r>
       <r>    -7.4207     0.0000   216.0000 </r>
       <r>    -7.2677     0.0000   216.0000 </r>
       <r>    -7.1147     0.0000   216.0000 </r>
       <r>    -6.9617     0.0000   216.0000 </r>
       <r>    -6.8087     0.0000   216.0000 </r>
       <r>    -6.6557     0.0000   216.0000 </r>
       <r>    -6.5027     0.0000   216.0000 </r>
       <r>    -6.3497     0.0000   216.0000 </r>
       <r>    -6.1966     0.0000   216.0000 </r>
       <r>    -6.0436     0.0000   216.0000 </r>
       <r>    -5.8906     0.0000   216.0000 </r>
       <r>    -5.7376     0.0000   216.0000 </r>
       <r>    -5.5846     0.0000   216.0000 </r>
       <r>    -5.4316     0.0000   216.0000 </r>
       <r>    -5.2786     0.0000   216.0000 </r>
       <r>    -5.1256     0.0000   216.0000 </r>
       <r>    -4.9726     0.0000   216.0000 </r>
       <r>    -4.8195     0.0000   216.0000 </r>
       <r>    -4.6665     0.0000   216.0000 </r>
       <r>    -4.5135     0.0000   216.0000 </r>
       <r>    -4.3605     0.0000   216.0000 </r>
       <r>    -4.2075     0.0000   216.0000 </r>
       <r>    -4.0545     0.0000   216.0000 </r>
       <r>    -3.9015     0.0000   216.0000 </r>
       <r>    -3.7485     0.0000   216.0000 </r>
       <r>    -3.5954     0.0000   216.0000 </r>
       <r>    -3.4424     0.0000   216.0000 </r>
       <r>    -3.2894     0.0000   216.0000 </r>
       <r>    -3.1364     0.0000   216.0000 </r>
       <r>    -2.9834     0.0000   216.0000 </r>
       <r>    -2.8304     0.0000   216.0000 </r>
       <r>    -2.6774     0.0000   216.0000 </r>
       <r>    -2.5244     0.3594   216.0550 </r>
       <r>    -2.3714     9.1046   217.4481 </r>
       <r>    -2.2183    11.3753   219.1887 </r>
       <r>    -2.0653    23.0999   222.7232 </r>
       <r>    -1.9123    34.4942   228.0012 </r>
       <r>    -1.7593    33.7871   233.1710 </r>
       <r>    -1.6063    20.7265   236.3424 </r>
       <r>    -1.4533    50.8106   244.1170 </r>
       <r>    -1.3003    47.7961   251.4304 </r>
       <r>    -1.1473    61.8353   260.8919 </r>
       <r>    -0.9943    91.4977   274.8921 </r>
       <r>    -0.8412    91.4086   288.8787 </r>
       <r>    -0.6882    81.7500   301.3874 </r>
       <r>    -0.5352    93.1331   315.6378 </r>
       <r>    -0.3822    85.1408   328.6654 </r>
       <r>    -0.2292    69.8752   339.3571 </r>
       <r>    -0.0762    58.2729   348.2735 </r>
       <r>     0.0768    59.9301   357.4435 </r>
       <r>     0.2298    55.2879   365.9032 </r>
       <r>     0.3829    56.9602   374.6188 </r>
       <r>     0.5359    48.1452   381.9856 </r>
       <r>     0.6889    55.1972   390.4314 </r>
       <r>     0.8419    63.1886   400.1000 </r>
       <r>     0.9949    54.2261   408.3972 </r>
       <r>     1.1479    65.4934   418.4185 </r>
       <r>     1.3009    80.7061   430.7674 </r>
       <r>     1.4539    75.7446   442.3572 </r>
       <r>     1.6069    90.1638   456.1533 </r>
       <r>     1.7600    65.7989   466.2213 </r>
       <r>     1.9130    32.8746   471.2515 </r>
       <r>     2.0660    29.9839   475.8394 </r>
       <r>     2.2190    26.4603   479.8881 </r>
       <r>     2.3720     0.7310   480.0000 </r>
       <r>     2.5250     0.0000   480.0000 </r>
       <r>     2.6780     0.0000   480.0000 </r>
       <r>     2.8310     0.0000   480.0000 </r>
       <r>     2.9840     0.0000   480.0000 </r>
       <r>     3.1371     0.0000   480.0000 </r>
       <r>     3.2901     0.0000   480.0000 </r>
       <r>     3.4431     0.0000   480.0000 </r>
       <r>     3.5961     0.0000   480.0000 </r>
       <r>     3.7491     0.0000   480.0000 </r>
       <r>     3.9021     0.0000   480.0000 </r>
       <r>     4.0551     0.0000   480.0000 </r>
       <r>     4.2081     0.0000   480.0000 </r>
       <r>     4.3612     0.0170   480.0026 </r>
       <r>     4.5142    18.8106   482.8808 </r>
       <r>     4.6672    74.7770   494.3226 </r>
       <r>     4.8202    56.1631   502.9162 </r>
       <r>     4.9732    52.8025   510.9956 </r>
       <r>     5.1262    81.6806   523.4937 </r>
       <r>     5.2792    92.9494   537.7160 </r>
       <r>     5.4322    68.3147   548.1690 </r>
       <r>     5.5852    76.2125   559.8304 </r>
       <r>     5.7383    49.3410   567.3801 </r>
       <r>     5.8913    74.8588   578.8344 </r>
       <r>     6.0443    85.5541   591.9252 </r>
       <r>     6.1973    73.5655   603.1815 </r>
       <r>     6.3503    40.2711   609.3435 </r>
       <r>     6.5033     4.2917   610.0002 </r>
       <r>     6.6563    11.6937   611.7894 </r>
       <r>     6.8093    18.2629   614.5839 </r>
       <r>     6.9624     9.1459   615.9833 </r>
       <r>     7.1154     4.3490   616.6487 </r>
       <r>     7.2684    17.2272   619.2847 </r>
       <r>     7.4214    11.7495   621.0825 </r>
       <r>     7.5744    20.0524   624.1508 </r>
       <r>     7.7274    24.4876   627.8976 </r>
       <r>     7.8804    21.0399   631.1170 </r>
       <r>     8.0334    29.2184   635.5877 </r>
       <r>     8.1864    32.5469   640.5678 </r>
       <r>     8.3395    17.6001   643.2608 </r>
       <r>     8.4925    24.3602   646.9882 </r>
       <r>     8.6455    14.7568   649.2462 </r>
       <r>     8.7985    15.7811   651.6609 </r>
       <r>     8.9515    41.1749   657.9611 </r>
       <r>     9.1045    36.7390   663.5826 </r>
       <r>     9.2575    33.2876   668.6760 </r>
       <r>     9.4105    46.2044   675.7458 </r>
       <r>     9.5635    48.5364   683.1724 </r>
       <r>     9.7166    50.8990   690.9606 </r>
       <r>     9.8696    52.8424   699.0461 </r>
       <r>    10.0226    60.6270   708.3227 </r>
       <r>    10.1756    55.2794   716.7811 </r>
       <r>    10.3286    58.4084   725.7183 </r>
       <r>    10.4816    57.8054   734.5632 </r>
       <r>    10.6346    49.7334   742.1730 </r>
       <r>    10.7876    47.9614   749.5116 </r>
       <r>    10.9407    47.6920   756.8090 </r>
       <r>    11.0937    55.1335   765.2451 </r>
       <r>    11.2467    17.9917   767.9980 </r>
       <r>    11.3997     0.0128   768.0000 </r>
       <r>    11.5527     0.0000   768.0000 </r>
       <r>    11.7057     0.0000   768.0000 </r>
       <r>    11.8587     0.0000   768.0000 </r>
       <r>    12.0117     0.0000   768.0000 </r>
       <r>    12.1647     0.0000   768.0000 </r>
       <r>    12.3178     0.0000   768.0000 </r>
       <r>    12.4708     0.0000   768.0000 </r>
       <r>    12.6238     0.0000   768.0000 </r>
       <r>    12.7768     0.0000   768.0000 </r>
       <r>    12.9298     0.0000   768.0000 </r>
       <r>    13.0828     0.0000   768.0000 </r>
       <r>    13.2358     0.0000   768.0000 </r>
      </set>
     </set>
    </array>
   </total>
  </dos>
 </calculation>
 <structure name="finalpos" >
  <crystal>
   <varray name="basis" >
    <v>      11.29511891       0.00788212       0.00000000 </v>
    <v>       0.00814840      11.35906343       0.00000000 </v>
    <v>       0.00000000       0.00000000      15.65446435 </v>
   </varray>
   <i name="volume">   2008.49764524 </i>
   <varray name="rec_basis" >
    <v>       0.08853386      -0.00006351       0.00000000 </v>
    <v>      -0.00006143       0.08803547       0.00000000 </v>
    <v>       0.00000000       0.00000000       0.06387954 </v>
   </varray>
  </crystal>
  <varray name="positions" >
   <v>       0.99409790       0.24532379       0.11298244 </v>
   <v>       0.98648165       0.25426520       0.62474789 </v>
   <v>       0.99409790       0.74532379       0.11298244 </v>
   <v>       0.98648165       0.75426520       0.62474789 </v>
   <v>       0.51351835       0.24573480       0.12474789 </v>
   <v>       0.50590210       0.25467621       0.61298244 </v>
   <v>       0.51351835       0.74573480       0.12474789 </v>
   <v>       0.50590210       0.75467621       0.61298244 </v>
   <v>       0.99409790       0.24532379       0.38701756 </v>
   <v>       0.98648165       0.25426520       0.87525211 </v>
   <v>       0.99409790       0.74532379       0.38701756 </v>
   <v>       0.98648165       0.75426520       0.87525211 </v>
   <v>       0.51351835       0.24573480       0.37525211 </v>
   <v>       0.50590210       0.25467621       0.88701756 </v>
   <v>       0.51351835       0.74573480       0.37525211 </v>
   <v>       0.50590210       0.75467621       0.88701756 </v>
   <v>       0.24615411       0.00609279       0.11340305 </v>
   <v>       0.25384589       0.99390721       0.61340305 </v>
   <v>       0.24615411       0.50609279       0.11340305 </v>
   <v>       0.25384589       0.49390721       0.61340305 </v>
   <v>       0.75964052       0.00042766       0.12153457 </v>
   <v>       0.74035948      -0.00042766       0.62153457 </v>
   <v>       0.75964052       0.50042766       0.12153457 </v>
   <v>       0.74035948       0.49957234       0.62153457 </v>
   <v>       0.24615411       0.00609279       0.38659695 </v>
   <v>       0.25384589       0.99390721       0.88659695 </v>
   <v>       0.24615411       0.50609279       0.38659695 </v>
   <v>       0.25384589       0.49390721       0.88659695 </v>
   <v>       0.75964052       0.00042766       0.37846543 </v>
   <v>       0.74035948      -0.00042766       0.87846543 </v>
   <v>       0.75964052       0.50042766       0.37846543 </v>
   <v>       0.74035948       0.49957234       0.87846543 </v>
   <v>       0.76104837       0.73960822       0.25000000 </v>
   <v>       0.50132972       0.00033778       0.00495515 </v>
   <v>       0.25000000       0.75000000      -0.00000000 </v>
   <v>      -0.00132972       0.49966222       0.99504485 </v>
   <v>       0.50132972       0.50033778       0.49504485 </v>
   <v>       0.25000000       0.25000000       0.50000000 </v>
   <v>       0.25000000       0.75000000       0.50000000 </v>
   <v>      -0.00132972       0.99966222       0.50495515 </v>
   <v>       0.76104837       0.23960822       0.25000000 </v>
   <v>       0.25000000       0.25000000      -0.00000000 </v>
   <v>       0.73895163       0.76039178       0.75000000 </v>
   <v>       0.50132972       0.50033778       0.00495515 </v>
   <v>       0.50132972       0.00033778       0.49504485 </v>
   <v>      -0.00132972       0.49966222       0.50495515 </v>
   <v>       0.73895163       0.26039178       0.75000000 </v>
   <v>      -0.00132972       0.99966222       0.99504485 </v>
   <v>       0.52428553       0.98677970       0.25000000 </v>
   <v>       0.52428553       0.48677970       0.25000000 </v>
   <v>       0.99649893       0.48477225       0.25000000 </v>
   <v>       0.99649893       0.98477225       0.25000000 </v>
   <v>       0.25577851       0.79252806       0.25000000 </v>
   <v>       0.75000000       0.25000000      -0.00000000 </v>
   <v>       0.75000000       0.75000000       0.50000000 </v>
   <v>       0.25577851       0.29252806       0.25000000 </v>
   <v>       0.24422149       0.20747194       0.75000000 </v>
   <v>       0.24422149       0.70747194       0.75000000 </v>
   <v>       0.75000000       0.75000000      -0.00000000 </v>
   <v>       0.50350107       0.51522775       0.75000000 </v>
   <v>       0.75000000       0.25000000       0.50000000 </v>
   <v>       0.97571447       0.01322030       0.75000000 </v>
   <v>       0.50350107       0.01522775       0.75000000 </v>
   <v>       0.97571447       0.51322030       0.75000000 </v>
   <v>       0.00861592       0.01182697       0.12207307 </v>
   <v>       0.01941282       0.98108420       0.63257326 </v>
   <v>       0.00861592       0.51182697       0.12207307 </v>
   <v>       0.01941282       0.48108420       0.63257326 </v>
   <v>       0.48058718       0.01891580       0.13257326 </v>
   <v>       0.49138408       0.98817303       0.62207307 </v>
   <v>       0.48058718       0.51891580       0.13257326 </v>
   <v>       0.49138408       0.48817303       0.62207307 </v>
   <v>       0.00861592       0.01182697       0.37792693 </v>
   <v>       0.01941282       0.98108420       0.86742674 </v>
   <v>       0.00861592       0.51182697       0.37792693 </v>
   <v>       0.01941282       0.48108420       0.86742674 </v>
   <v>       0.48058718       0.01891580       0.36742674 </v>
   <v>       0.49138408       0.98817303       0.87792693 </v>
   <v>       0.48058718       0.51891580       0.36742674 </v>
   <v>       0.49138408       0.48817303       0.87792693 </v>
   <v>       0.23196141       0.22863676       0.36241370 </v>
   <v>       0.26803859       0.27136324       0.86241370 </v>
   <v>       0.23196141       0.72863676       0.36241370 </v>
   <v>       0.26803859       0.77136324       0.86241370 </v>
   <v>       0.76200854       0.24145455       0.37545901 </v>
   <v>       0.73799146       0.25854545       0.87545901 </v>
   <v>       0.76200854       0.74145455       0.37545901 </v>
   <v>       0.73799146       0.75854545       0.87545901 </v>
   <v>       0.23196141       0.22863676       0.13758630 </v>
   <v>       0.26803859       0.27136324       0.63758630 </v>
   <v>       0.23196141       0.72863676       0.13758630 </v>
   <v>       0.26803859       0.77136324       0.63758630 </v>
   <v>       0.76200854       0.24145455       0.12454099 </v>
   <v>       0.73799146       0.25854545       0.62454099 </v>
   <v>       0.76200854       0.74145455       0.12454099 </v>
   <v>       0.73799146       0.75854545       0.62454099 </v>
   <v>       0.62040948       0.13692784       0.25000000 </v>
   <v>       0.87108411       0.10217504       0.25000000 </v>
   <v>       0.16636375       0.43498489       0.25000000 </v>
   <v>       0.41239369       0.34270991       0.25000000 </v>
   <v>       0.66040217       0.38800683       0.25000000 </v>
   <v>       0.91446335       0.34112094       0.25000000 </v>
   <v>       0.62040948       0.63692784       0.25000000 </v>
   <v>       0.87108411       0.60217504       0.25000000 </v>
   <v>       0.16636375       0.93498489       0.25000000 </v>
   <v>       0.41239369       0.84270991       0.25000000 </v>
   <v>       0.66040217       0.88800683       0.25000000 </v>
   <v>       0.91446335       0.84112094       0.25000000 </v>
   <v>       0.12975781       0.12602799       0.51145333 </v>
   <v>       0.37305454       0.12909176       0.50277931 </v>
   <v>       0.62379969       0.12103110       0.49932536 </v>
   <v>       0.88023726       0.12413043       0.51208768 </v>
   <v>       0.12694546       0.37090824       0.49722069 </v>
   <v>       0.37024219       0.37397201       0.48854667 </v>
   <v>       0.61976274       0.37586957       0.48791232 </v>
   <v>       0.87620031       0.37896890       0.50067464 </v>
   <v>       0.12975781       0.62602799       0.51145333 </v>
   <v>       0.37305454       0.62909176       0.50277931 </v>
   <v>       0.62379969       0.62103110       0.49932536 </v>
   <v>       0.88023726       0.62413043       0.51208768 </v>
   <v>       0.12694546       0.87090824       0.49722069 </v>
   <v>       0.37024219       0.87397201       0.48854667 </v>
   <v>       0.61976274       0.87586957       0.48791232 </v>
   <v>       0.87620031       0.87896890       0.50067464 </v>
   <v>       0.08760631       0.15729009       0.75000000 </v>
   <v>       0.33363625       0.06501511       0.75000000 </v>
   <v>       0.58553665       0.15887906       0.75000000 </v>
   <v>       0.83959783       0.11199317       0.75000000 </v>
   <v>       0.62891589       0.39782496       0.75000000 </v>
   <v>       0.87959052       0.36307216       0.75000000 </v>
   <v>       0.08760631       0.65729009       0.75000000 </v>
   <v>       0.33363625       0.56501511       0.75000000 </v>
   <v>       0.58553665       0.65887906       0.75000000 </v>
   <v>       0.83959783       0.61199317       0.75000000 </v>
   <v>       0.62891589       0.89782496       0.75000000 </v>
   <v>       0.87959052       0.86307216       0.75000000 </v>
   <v>       0.12975781       0.12602799       0.98854667 </v>
   <v>       0.37305454       0.12909176       0.99722069 </v>
   <v>       0.62379969       0.12103110       0.00067464 </v>
   <v>       0.88023726       0.12413043       0.98791232 </v>
   <v>       0.12694546       0.37090824       0.00277931 </v>
   <v>       0.37024219       0.37397201       0.01145333 </v>
   <v>       0.61976274       0.37586957       0.01208768 </v>
   <v>       0.87620031       0.37896890      -0.00067464 </v>
   <v>       0.12975781       0.62602799       0.98854667 </v>
   <v>       0.37305454       0.62909176       0.99722069 </v>
   <v>       0.62379969       0.62103110       0.00067464 </v>
   <v>       0.88023726       0.62413043       0.98791232 </v>
   <v>       0.12694546       0.87090824       0.00277931 </v>
   <v>       0.37024219       0.87397201       0.01145333 </v>
   <v>       0.61976274       0.87586957       0.01208768 </v>
   <v>       0.87620031       0.87896890      -0.00067464 </v>
  </varray>
 </structure>
</modeling>
