       N       E                     dE             d eps       ncg     rms          rms(c)
DAV:   1    -0.995857358468E+03   -0.99586E+03   -0.27735E-01 12928   0.123E+00    0.747E-02
RMM:   2    -0.995857359935E+03   -0.14671E-05   -0.19119E-04  8493   0.269E-02    0.130E-01
RMM:   3    -0.995857358923E+03    0.10125E-05   -0.35632E-05  7208   0.126E-02    0.253E-02
RMM:   4    -0.995857367981E+03   -0.90585E-05   -0.17101E-05  7173   0.582E-03    0.190E-02
RMM:   5    -0.995857372986E+03   -0.50046E-05   -0.76093E-06  7111   0.496E-03    0.162E-02
RMM:   6    -0.995857374716E+03   -0.17303E-05   -0.48943E-06  5919   0.326E-03    0.497E-03
RMM:   7    -0.995857374930E+03   -0.21434E-06   -0.25465E-06  4876   0.301E-03    0.294E-03
RMM:   8    -0.995857375109E+03   -0.17854E-06   -0.13673E-06  3627   0.209E-03
   1 F= -.99585738E+03 E0= -.99585738E+03  d E =-.995857E+03  mag=   120.0000
       N       E                     dE             d eps       ncg     rms          rms(c)
DAV:   1    -0.995850005604E+03    0.73693E-02   -0.25262E+00 12400   0.189E+00    0.104E+00
RMM:   2    -0.995863711595E+03   -0.13706E-01   -0.74586E-02 12538   0.403E-01    0.686E-01
RMM:   3    -0.995865567015E+03   -0.18554E-02   -0.45267E-03 13168   0.110E-01    0.368E-01
RMM:   4    -0.995865193792E+03    0.37322E-03   -0.74564E-04 11646   0.360E-02    0.227E-01
RMM:   5    -0.995865042777E+03    0.15102E-03   -0.79595E-04 11211   0.327E-02    0.502E-02
RMM:   6    -0.995865041061E+03    0.17164E-05   -0.51310E-05  7430   0.135E-02    0.453E-02
RMM:   7    -0.995865043031E+03   -0.19707E-05   -0.23312E-05  7367   0.631E-03    0.255E-02
RMM:   8    -0.995865043184E+03   -0.15231E-06   -0.11971E-05  7016   0.577E-03
   2 F= -.99586504E+03 E0= -.99586504E+03  d E =-.766807E-02  mag=   120.0000
       N       E                     dE             d eps       ncg     rms          rms(c)
DAV:   1    -0.995864845568E+03    0.19746E-03   -0.57122E-02 13312   0.285E-01    0.153E-01
RMM:   2    -0.995865158170E+03   -0.31260E-03   -0.17047E-03 12263   0.606E-02    0.990E-02
RMM:   3    -0.995865197801E+03   -0.39632E-04   -0.82571E-05  7544   0.182E-02    0.594E-02
RMM:   4    -0.995865192999E+03    0.48027E-05   -0.23643E-05  7201   0.799E-03    0.356E-02
RMM:   5    -0.995865189126E+03    0.38731E-05   -0.22805E-05  7165   0.570E-03    0.153E-02
RMM:   6    -0.995865189584E+03   -0.45866E-06   -0.52019E-06  6344   0.408E-03    0.138E-02
RMM:   7    -0.995865189712E+03   -0.12788E-06   -0.11793E-06  3875   0.221E-03    0.464E-03
RMM:   8    -0.995865189759E+03   -0.46261E-07   -0.57911E-07  3390   0.216E-03
   3 F= -.99586519E+03 E0= -.99586519E+03  d E =-.781465E-02  mag=   120.0000
       N       E                     dE             d eps       ncg     rms          rms(c)
DAV:   1    -0.995861247773E+03    0.39419E-02   -0.23907E+00 12400   0.187E+00    0.791E-01
RMM:   2    -0.995870595817E+03   -0.93480E-02   -0.67014E-02 12523   0.374E-01    0.493E-01
RMM:   3    -0.995871578142E+03   -0.98233E-03   -0.40948E-03 13266   0.107E-01    0.267E-01
RMM:   4    -0.995871315960E+03    0.26218E-03   -0.65010E-04 11541   0.326E-02    0.155E-01
RMM:   5    -0.995871223454E+03    0.92507E-04   -0.48629E-04 10491   0.246E-02    0.442E-02
RMM:   6    -0.995871227651E+03   -0.41978E-05   -0.42842E-05  7414   0.119E-02    0.316E-02
RMM:   7    -0.995871230310E+03   -0.26588E-05   -0.23701E-05  7272   0.617E-03    0.200E-02
RMM:   8    -0.995871231691E+03   -0.13810E-05   -0.11558E-05  7038   0.583E-03
   4 F= -.99587123E+03 E0= -.99587123E+03  d E =-.604193E-02  mag=   120.0000
       N       E                     dE             d eps       ncg     rms          rms(c)
DAV:   1    -0.995865852121E+03    0.53782E-02   -0.16603E+00 12368   0.156E+00    0.658E-01
RMM:   2    -0.995872361651E+03   -0.65095E-02   -0.46691E-02 12520   0.312E-01    0.409E-01
RMM:   3    -0.995873043042E+03   -0.68139E-03   -0.28804E-03 13099   0.890E-02    0.223E-01
RMM:   4    -0.995872859239E+03    0.18380E-03   -0.44232E-04 10205   0.274E-02    0.130E-01
RMM:   5    -0.995872795863E+03    0.63376E-04   -0.34036E-04  9187   0.215E-02    0.413E-02
RMM:   6    -0.995872800322E+03   -0.44595E-05   -0.41058E-05  7368   0.120E-02    0.316E-02
RMM:   7    -0.995872803006E+03   -0.26837E-05   -0.22433E-05  7139   0.578E-03    0.166E-02
RMM:   8    -0.995872804495E+03   -0.14888E-05   -0.11448E-05  7064   0.602E-03
   5 F= -.99587280E+03 E0= -.99587280E+03  d E =-.761474E-02  mag=   120.0000
       N       E                     dE             d eps       ncg     rms          rms(c)
DAV:   1    -0.995870931327E+03    0.18717E-02   -0.18535E+00 12352   0.163E+00    0.597E-01
RMM:   2    -0.995877330251E+03   -0.63989E-02   -0.49571E-02 12511   0.316E-01    0.359E-01
RMM:   3    -0.995877900461E+03   -0.57021E-03   -0.30886E-03 13061   0.917E-02    0.197E-01
RMM:   4    -0.995877721309E+03    0.17915E-03   -0.43121E-04 10040   0.267E-02    0.117E-01
RMM:   5    -0.995877649771E+03    0.71539E-04   -0.29350E-04  8507   0.203E-02    0.364E-02
RMM:   6    -0.995877653390E+03   -0.36198E-05   -0.44781E-05  7315   0.122E-02    0.325E-02
RMM:   7    -0.995877655471E+03   -0.20802E-05   -0.22167E-05  7196   0.632E-03    0.148E-02
RMM:   8    -0.995877655884E+03   -0.41380E-06   -0.12033E-05  6990   0.627E-03
   6 F= -.99587766E+03 E0= -.99587766E+03  d E =-.485139E-02  mag=   120.0000
       N       E                     dE             d eps       ncg     rms          rms(c)
DAV:   1    -0.995858806227E+03    0.18849E-01   -0.61921E+00 12288   0.298E+00    0.109E+00
RMM:   2    -0.995880185793E+03   -0.21380E-01   -0.16550E-01 12517   0.578E-01    0.656E-01
RMM:   3    -0.995882087997E+03   -0.19022E-02   -0.10229E-02 13408   0.167E-01    0.361E-01
RMM:   4    -0.995881509714E+03    0.57828E-03   -0.15750E-03 14266   0.481E-02    0.213E-01
RMM:   5    -0.995881272500E+03    0.23721E-03   -0.10189E-03 12017   0.325E-02    0.598E-02
RMM:   6    -0.995881273055E+03   -0.55511E-06   -0.84822E-05  7480   0.157E-02    0.454E-02
RMM:   7    -0.995881276518E+03   -0.34628E-05   -0.40495E-05  7399   0.845E-03    0.259E-02
RMM:   8    -0.995881276701E+03   -0.18340E-06   -0.23850E-05  7278   0.765E-03
   7 F= -.99588128E+03 E0= -.99588128E+03  d E =-.847221E-02  mag=   120.0000
       N       E                     dE             d eps       ncg     rms          rms(c)
DAV:   1    -0.995875516802E+03    0.57597E-02   -0.27654E+00 12320   0.196E+00    0.692E-01
RMM:   2    -0.995884873072E+03   -0.93563E-02   -0.72471E-02 12530   0.375E-01    0.421E-01
RMM:   3    -0.995885664344E+03   -0.79127E-03   -0.44378E-03 13096   0.110E-01    0.227E-01
RMM:   4    -0.995885426817E+03    0.23753E-03   -0.63624E-04 11830   0.318E-02    0.135E-01
RMM:   5    -0.995885337959E+03    0.88858E-04   -0.44348E-04 10095   0.227E-02    0.444E-02
RMM:   6    -0.995885341497E+03   -0.35379E-05   -0.46362E-05  7366   0.116E-02    0.338E-02
RMM:   7    -0.995885344556E+03   -0.30592E-05   -0.23607E-05  7259   0.627E-03    0.200E-02
RMM:   8    -0.995885346633E+03   -0.20771E-05   -0.13122E-05  7131   0.604E-03
   8 F= -.99588535E+03 E0= -.99588535E+03  d E =-.406993E-02  mag=   120.0000
       N       E                     dE             d eps       ncg     rms          rms(c)
DAV:   1    -0.995879140194E+03    0.62044E-02   -0.20563E+00 12360   0.169E+00    0.595E-01
RMM:   2    -0.995886103115E+03   -0.69629E-02   -0.53871E-02 12536   0.323E-01    0.360E-01
RMM:   3    -0.995886689625E+03   -0.58651E-03   -0.32863E-03 12999   0.946E-02    0.196E-01
RMM:   4    -0.995886511580E+03    0.17805E-03   -0.46236E-04 10467   0.274E-02    0.116E-01
RMM:   5    -0.995886446630E+03    0.64950E-04   -0.31444E-04  8805   0.204E-02    0.414E-02
RMM:   6    -0.995886451043E+03   -0.44131E-05   -0.46291E-05  7324   0.122E-02    0.383E-02
RMM:   7    -0.995886453866E+03   -0.28233E-05   -0.21821E-05  7223   0.645E-03    0.185E-02
RMM:   8    -0.995886455792E+03   -0.19257E-05   -0.12327E-05  7148   0.634E-03
   9 F= -.99588646E+03 E0= -.99588646E+03  d E =-.517909E-02  mag=   120.0000
       N       E                     dE             d eps       ncg     rms          rms(c)
DAV:   1    -0.995876521348E+03    0.99325E-02   -0.32597E+00 12352   0.211E+00    0.809E-01
RMM:   2    -0.995888730235E+03   -0.12209E-01   -0.81764E-02 12628   0.392E-01    0.457E-01
RMM:   3    -0.995889958212E+03   -0.12280E-02   -0.46957E-03 12894   0.114E-01    0.219E-01
RMM:   4    -0.995889696135E+03    0.26208E-03   -0.79160E-04 12235   0.345E-02    0.126E-01
RMM:   5    -0.995889615530E+03    0.80605E-04   -0.40813E-04 10105   0.223E-02    0.455E-02
RMM:   6    -0.995889616938E+03   -0.14080E-05   -0.48376E-05  7396   0.113E-02    0.297E-02
RMM:   7    -0.995889618403E+03   -0.14653E-05   -0.23294E-05  7265   0.653E-03    0.200E-02
RMM:   8    -0.995889618057E+03    0.34677E-06   -0.12930E-05  7000   0.574E-03
  10 F= -.99588962E+03 E0= -.99588962E+03  d E =-.316226E-02  mag=   120.0000
       N       E                     dE             d eps       ncg     rms          rms(c)
DAV:   1    -0.995887305149E+03    0.23133E-02   -0.66903E-01 12544   0.955E-01    0.365E-01
RMM:   2    -0.995889824629E+03   -0.25195E-02   -0.16924E-02 12642   0.178E-01    0.206E-01
RMM:   3    -0.995890072475E+03   -0.24785E-03   -0.95131E-04 11146   0.515E-02    0.100E-01
RMM:   4    -0.995890018431E+03    0.54043E-04   -0.13801E-04  7610   0.165E-02    0.593E-02
RMM:   5    -0.995890002480E+03    0.15951E-04   -0.81015E-05  7310   0.116E-02    0.261E-02
RMM:   6    -0.995890004357E+03   -0.18766E-05   -0.20280E-05  7173   0.739E-03    0.161E-02
RMM:   7    -0.995890005097E+03   -0.73973E-06   -0.10470E-05  6902   0.440E-03    0.104E-02
RMM:   8    -0.995890005018E+03    0.78915E-07   -0.55805E-06  5961   0.393E-03
  11 F= -.99589001E+03 E0= -.99589001E+03  d E =-.354923E-02  mag=   120.0000
       N       E                     dE             d eps       ncg     rms          rms(c)
DAV:   1    -0.995883107793E+03    0.68973E-02   -0.22949E+00 12384   0.175E+00    0.670E-01
RMM:   2    -0.995891642175E+03   -0.85344E-02   -0.57272E-02 12542   0.328E-01    0.390E-01
RMM:   3    -0.995892509347E+03   -0.86717E-03   -0.34096E-03 12841   0.957E-02    0.186E-01
RMM:   4    -0.995892337778E+03    0.17157E-03   -0.49636E-04 10831   0.279E-02    0.112E-01
RMM:   5    -0.995892265763E+03    0.72014E-04   -0.34520E-04  9257   0.206E-02    0.454E-02
RMM:   6    -0.995892266892E+03   -0.11282E-05   -0.44525E-05  7312   0.116E-02    0.380E-02
RMM:   7    -0.995892268088E+03   -0.11962E-05   -0.19482E-05  7187   0.606E-03    0.181E-02
RMM:   8    -0.995892267483E+03    0.60473E-06   -0.11072E-05  7016   0.576E-03
  12 F= -.99589227E+03 E0= -.99589227E+03  d E =-.226247E-02  mag=   120.0000
       N       E                     dE             d eps       ncg     rms          rms(c)
DAV:   1    -0.995891166203E+03    0.11019E-02   -0.33078E-01 12624   0.666E-01    0.253E-01
RMM:   2    -0.995892405235E+03   -0.12390E-02   -0.83415E-03 12501   0.125E-01    0.146E-01
RMM:   3    -0.995892523348E+03   -0.11811E-03   -0.44004E-04  9710   0.366E-02    0.717E-02
RMM:   4    -0.995892503544E+03    0.19804E-04   -0.74857E-05  7279   0.125E-02    0.448E-02
RMM:   5    -0.995892493383E+03    0.10161E-04   -0.47259E-05  7202   0.926E-03    0.216E-02
RMM:   6    -0.995892494634E+03   -0.12508E-05   -0.15018E-05  6807   0.568E-03    0.101E-02
RMM:   7    -0.995892494997E+03   -0.36301E-06   -0.69207E-06  6150   0.415E-03    0.854E-03
RMM:   8    -0.995892495048E+03   -0.51805E-07   -0.36021E-06  4571   0.288E-03
  13 F= -.99589250E+03 E0= -.99589250E+03  d E =-.249003E-02  mag=   120.0000
       N       E                     dE             d eps       ncg     rms          rms(c)
DAV:   1    -0.995889062784E+03    0.34322E-02   -0.12814E+00 12352   0.134E+00    0.490E-01
RMM:   2    -0.995893622285E+03   -0.45595E-02   -0.33285E-02 12575   0.253E-01    0.293E-01
RMM:   3    -0.995894044550E+03   -0.42226E-03   -0.19761E-03 12771   0.738E-02    0.156E-01
RMM:   4    -0.995893944890E+03    0.99660E-04   -0.26389E-04  8823   0.215E-02    0.951E-02
RMM:   5    -0.995893905073E+03    0.39817E-04   -0.18320E-04  7550   0.167E-02    0.368E-02
RMM:   6    -0.995893909611E+03   -0.45373E-05   -0.37772E-05  7228   0.112E-02    0.408E-02
RMM:   7    -0.995893911486E+03   -0.18754E-05   -0.17174E-05  7046   0.583E-03    0.138E-02
RMM:   8    -0.995893912500E+03   -0.10141E-05   -0.93338E-06  6859   0.546E-03
  14 F= -.99589391E+03 E0= -.99589391E+03  d E =-.141745E-02  mag=   120.0000
       N       E                     dE             d eps       ncg     rms          rms(c)
DAV:   1    -0.995893611568E+03    0.29992E-03   -0.98311E-02 12720   0.370E-01    0.135E-01
RMM:   2    -0.995893965544E+03   -0.35398E-03   -0.25882E-03 12351   0.703E-02    0.813E-02
RMM:   3    -0.995893994199E+03   -0.28655E-04   -0.12107E-04  7596   0.218E-02    0.453E-02
RMM:   4    -0.995893990422E+03    0.37771E-05   -0.32791E-05  7081   0.922E-03    0.273E-02
RMM:   5    -0.995893988574E+03    0.18477E-05   -0.19642E-05  6795   0.570E-03    0.146E-02
RMM:   6    -0.995893989256E+03   -0.68157E-06   -0.67930E-06  6078   0.446E-03    0.125E-02
RMM:   7    -0.995893989685E+03   -0.42917E-06   -0.29392E-06  4546   0.262E-03    0.381E-03
RMM:   8    -0.995893989894E+03   -0.20949E-06   -0.13430E-06  3671   0.252E-03
  15 F= -.99589399E+03 E0= -.99589399E+03  d E =-.149485E-02  mag=   120.0000
       N       E                     dE             d eps       ncg     rms          rms(c)
DAV:   1    -0.995891251299E+03    0.27384E-02   -0.12413E+00 12336   0.132E+00    0.415E-01
RMM:   2    -0.995895057225E+03   -0.38059E-02   -0.33340E-02 12557   0.254E-01    0.259E-01
RMM:   3    -0.995895301151E+03   -0.24393E-03   -0.20258E-03 12775   0.742E-02    0.150E-01
RMM:   4    -0.995895203715E+03    0.97436E-04   -0.22324E-04  8269   0.204E-02    0.917E-02
RMM:   5    -0.995895158694E+03    0.45021E-04   -0.18146E-04  7575   0.165E-02    0.315E-02
RMM:   6    -0.995895162243E+03   -0.35484E-05   -0.36265E-05  7221   0.111E-02    0.376E-02
RMM:   7    -0.995895163688E+03   -0.14455E-05   -0.16362E-05  7026   0.571E-03    0.124E-02
RMM:   8    -0.995895163673E+03    0.14887E-07   -0.90415E-06  6852   0.546E-03
  16 F= -.99589516E+03 E0= -.99589516E+03  d E =-.117378E-02  mag=   120.0000
       N       E                     dE             d eps       ncg     rms          rms(c)
DAV:   1    -0.995894843081E+03    0.32061E-03   -0.13041E-01 12416   0.429E-01    0.135E-01
RMM:   2    -0.995895246131E+03   -0.40305E-03   -0.35394E-03 12392   0.824E-02    0.844E-02
RMM:   3    -0.995895266172E+03   -0.20042E-04   -0.16641E-04  7645   0.253E-02    0.508E-02
RMM:   4    -0.995895260900E+03    0.52722E-05   -0.40833E-05  7104   0.105E-02    0.303E-02
RMM:   5    -0.995895256343E+03    0.45567E-05   -0.26060E-05  6990   0.664E-03    0.179E-02
RMM:   6    -0.995895256856E+03   -0.51284E-06   -0.88408E-06  6246   0.525E-03    0.163E-02
RMM:   7    -0.995895257199E+03   -0.34260E-06   -0.38717E-06  4925   0.286E-03    0.399E-03
RMM:   8    -0.995895257252E+03   -0.53187E-07   -0.18888E-06  4202   0.271E-03
  17 F= -.99589526E+03 E0= -.99589526E+03  d E =-.126736E-02  mag=   120.0000
       N       E                     dE             d eps       ncg     rms          rms(c)
DAV:   1    -0.995891773253E+03    0.34839E-02   -0.11016E+00 12464   0.123E+00    0.454E-01
RMM:   2    -0.995895847750E+03   -0.40745E-02   -0.28943E-02 12539   0.235E-01    0.267E-01
RMM:   3    -0.995896240629E+03   -0.39288E-03   -0.17280E-03 12561   0.686E-02    0.133E-01
RMM:   4    -0.995896159257E+03    0.81372E-04   -0.20001E-04  8421   0.194E-02    0.821E-02
RMM:   5    -0.995896126088E+03    0.33169E-04   -0.14753E-04  7448   0.151E-02    0.403E-02
RMM:   6    -0.995896129813E+03   -0.37253E-05   -0.33596E-05  7208   0.103E-02    0.371E-02
RMM:   7    -0.995896131429E+03   -0.16156E-05   -0.14306E-05  7052   0.552E-03    0.135E-02
RMM:   8    -0.995896132235E+03   -0.80619E-06   -0.80167E-06  6738   0.493E-03
  18 F= -.99589613E+03 E0= -.99589613E+03  d E =-.874983E-03  mag=   120.0000
       N       E                     dE             d eps       ncg     rms          rms(c)
DAV:   1    -0.995895952309E+03    0.17912E-03   -0.52259E-02 12560   0.269E-01    0.988E-02
RMM:   2    -0.995896147985E+03   -0.19568E-03   -0.13991E-03 12136   0.514E-02    0.586E-02
RMM:   3    -0.995896164434E+03   -0.16450E-04   -0.64860E-05  7082   0.161E-02    0.303E-02
RMM:   4    -0.995896163037E+03    0.13970E-05   -0.18451E-05  6867   0.684E-03    0.185E-02
RMM:   5    -0.995896162023E+03    0.10143E-05   -0.96941E-06  6140   0.422E-03    0.116E-02
RMM:   6    -0.995896162284E+03   -0.26121E-06   -0.37205E-06  5303   0.343E-03    0.898E-03
RMM:   7    -0.995896162474E+03   -0.18923E-06   -0.11151E-06  3152   0.210E-03    0.308E-03
RMM:   8    -0.995896162555E+03   -0.81171E-07   -0.60820E-07  2931   0.216E-03
  19 F= -.99589616E+03 E0= -.99589616E+03  d E =-.905303E-03  mag=   120.0000
       N       E                     dE             d eps       ncg     rms          rms(c)
DAV:   1    -0.995892446076E+03    0.37164E-02   -0.10870E+00 12624   0.122E+00    0.454E-01
RMM:   2    -0.995896614867E+03   -0.41688E-02   -0.27531E-02 12608   0.226E-01    0.255E-01
RMM:   3    -0.995897037862E+03   -0.42300E-03   -0.15691E-03 12298   0.661E-02    0.114E-01
RMM:   4    -0.995896963210E+03    0.74652E-04   -0.21082E-04  8476   0.195E-02    0.686E-02
RMM:   5    -0.995896939373E+03    0.23837E-04   -0.12375E-04  7383   0.142E-02    0.397E-02
RMM:   6    -0.995896942747E+03   -0.33740E-05   -0.30813E-05  7192   0.957E-03    0.307E-02
RMM:   7    -0.995896944255E+03   -0.15087E-05   -0.13521E-05  7008   0.526E-03    0.137E-02
RMM:   8    -0.995896944980E+03   -0.72471E-06   -0.75664E-06  6580   0.472E-03
  20 F= -.99589694E+03 E0= -.99589694E+03  d E =-.782425E-03  mag=   120.0000
