<?xml version="1.0" encoding="ISO-8859-1"?>
<modeling>
 <generator>
  <i name="program" type="string">vasp </i>
  <i name="version" type="string">5.4.1  </i>
  <i name="subversion" type="string">05Feb16 (build Jan 25 2017 20:16:33) complex                          parallel </i>
  <i name="platform" type="string">BWXE6 </i>
  <i name="date" type="string">2019 08 06 </i>
  <i name="time" type="string">15:40:56 </i>
 </generator>
 <incar>
  <i type="string" name="SYSTEM"> STF</i>
  <i type="string" name="PREC">normal</i>
  <i type="string" name="ALGO"> Fast</i>
  <i type="int" name="ISPIN">     2</i>
  <i type="int" name="NELM">    40</i>
  <i type="int" name="NELMIN">     8</i>
  <i type="int" name="IBRION">     2</i>
  <i name="EDIFF">      0.00010000</i>
  <i name="EDIFFG">     -0.03000000</i>
  <i type="int" name="NSW">    30</i>
  <i type="int" name="ISIF">     3</i>
  <i name="ENCUT">    520.00000000</i>
  <i type="int" name="NBANDS">   768</i>
  <v name="MAGMOM">      0.60000000      0.60000000      0.60000000      0.60000000      0.60000000      0.60000000      0.60000000      0.60000000      0.60000000      0.60000000      0.60000000      0.60000000      0.60000000      0.60000000      0.60000000      0.60000000      0.60000000      0.60000000      0.60000000      0.60000000
      0.60000000      0.60000000      0.60000000      0.60000000      0.60000000      0.60000000      0.60000000      0.60000000      0.60000000      0.60000000      0.60000000      0.60000000      0.60000000      0.60000000      0.60000000      0.60000000      0.60000000      0.60000000      0.60000000      0.60000000
      5.00000000      5.00000000      5.00000000      5.00000000      5.00000000      5.00000000      5.00000000      5.00000000      5.00000000      5.00000000      5.00000000      5.00000000      5.00000000      5.00000000      5.00000000      5.00000000      5.00000000      5.00000000      5.00000000      5.00000000
      5.00000000      5.00000000      5.00000000      5.00000000      0.60000000      0.60000000      0.60000000      0.60000000      0.60000000      0.60000000      0.60000000      0.60000000      0.60000000      0.60000000      0.60000000      0.60000000      0.60000000      0.60000000      0.60000000      0.60000000
      0.60000000      0.60000000      0.60000000      0.60000000      0.60000000      0.60000000      0.60000000      0.60000000      0.60000000      0.60000000      0.60000000      0.60000000      0.60000000      0.60000000      0.60000000      0.60000000      0.60000000      0.60000000      0.60000000      0.60000000
      0.60000000      0.60000000      0.60000000      0.60000000      0.60000000      0.60000000      0.60000000      0.60000000      0.60000000      0.60000000      0.60000000      0.60000000      0.60000000      0.60000000      0.60000000      0.60000000      0.60000000      0.60000000      0.60000000      0.60000000
      0.60000000      0.60000000      0.60000000      0.60000000      0.60000000      0.60000000      0.60000000      0.60000000      0.60000000      0.60000000      0.60000000      0.60000000      0.60000000      0.60000000      0.60000000      0.60000000      0.60000000      0.60000000      0.60000000      0.60000000
      0.60000000      0.60000000      0.60000000      0.60000000      0.60000000      0.60000000      0.60000000      0.60000000</v>
  <i type="string" name="LREAL"> Auto</i>
  <i type="int" name="ISMEAR">     0</i>
  <i name="SIGMA">      0.05000000</i>
  <i type="int" name="LMAXMIX">     4</i>
  <v type="int" name="KPOINT_BSE">    -1     0     0     0</v>
  <i type="int" name="NELM">    40</i>
  <i type="logical" name="LDAU"> T  </i>
  <v type="int" name="LDAUTYPE">     2</v>
  <v type="int" name="LDAUL">     0     2     2     0</v>
  <v name="LDAUU">      0.00000000      3.00000000      5.00000000      0.00000000</v>
  <v name="LDAUJ">      0.00000000      0.00000000      0.00000000      0.00000000</v>
  <i type="int" name="LDAUPRINT">     1</i>
 </incar>
 <kpoints>
  <generation param="Monkhorst-Pack">
   <v type="int" name="divisions">       2        2        2 </v>
   <v name="usershift">      0.00000000       0.00000000       0.00000000 </v>
   <v name="genvec1">      0.50000000      -0.00000000       0.00000000 </v>
   <v name="genvec2">     -0.00000000       0.50000000      -0.00000000 </v>
   <v name="genvec3">      0.00000000       0.00000000       0.50000000 </v>
   <v name="shift">      0.50000000       0.50000000       0.50000000 </v>
  </generation>
  <varray name="kpointlist" >
   <v>       0.25000000       0.25000000       0.25000000 </v>
   <v>      -0.25000000       0.25000000       0.25000000 </v>
   <v>       0.25000000      -0.25000000       0.25000000 </v>
   <v>      -0.25000000      -0.25000000       0.25000000 </v>
  </varray>
  <varray name="weights" >
   <v>       0.25000000 </v>
   <v>       0.25000000 </v>
   <v>       0.25000000 </v>
   <v>       0.25000000 </v>
  </varray>
 </kpoints>
 <parameters>
  <separator name="general" >
   <i type="string" name="SYSTEM">STF</i>
   <i type="logical" name="LCOMPAT"> F  </i>
  </separator>
  <separator name="electronic" >
   <i type="string" name="PREC">normal</i>
   <i name="ENMAX">    520.00000000</i>
   <i name="ENAUG">    605.39200000</i>
   <i name="EDIFF">      0.00010000</i>
   <i type="int" name="IALGO">    68</i>
   <i type="int" name="IWAVPR">    11</i>
   <i type="int" name="NBANDS">   768</i>
   <i name="NELECT">   1048.00000000</i>
   <i type="int" name="TURBO">     0</i>
   <i type="int" name="IRESTART">     0</i>
   <i type="int" name="NREBOOT">     0</i>
   <i type="int" name="NMIN">     0</i>
   <i name="EREF">      0.00000000</i>
   <separator name="electronic smearing" >
    <i type="int" name="ISMEAR">     0</i>
    <i name="SIGMA">      0.05000000</i>
    <i name="KSPACING">      0.50000000</i>
    <i type="logical" name="KGAMMA"> T  </i>
   </separator>
   <separator name="electronic projectors" >
    <i type="logical" name="LREAL"> T  </i>
    <v name="ROPT">     -0.00050000     -0.00050000     -0.00050000     -0.00050000</v>
    <i type="int" name="LMAXPAW">  -100</i>
    <i type="int" name="LMAXMIX">     4</i>
    <i type="logical" name="NLSPLINE"> F  </i>
   </separator>
   <separator name="electronic startup" >
    <i type="int" name="ISTART">     1</i>
    <i type="int" name="ICHARG">     0</i>
    <i type="int" name="INIWAV">     1</i>
   </separator>
   <separator name="electronic spin" >
    <i type="int" name="ISPIN">     2</i>
    <i type="logical" name="LNONCOLLINEAR"> F  </i>
    <v name="MAGMOM">      0.60000000      0.60000000      0.60000000      0.60000000      0.60000000      0.60000000      0.60000000      0.60000000      0.60000000      0.60000000      0.60000000      0.60000000      0.60000000      0.60000000      0.60000000      0.60000000      0.60000000      0.60000000      0.60000000      0.60000000
      0.60000000      0.60000000      0.60000000      0.60000000      0.60000000      0.60000000      0.60000000      0.60000000      0.60000000      0.60000000      0.60000000      0.60000000      0.60000000      0.60000000      0.60000000      0.60000000      0.60000000      0.60000000      0.60000000      0.60000000
      5.00000000      5.00000000      5.00000000      5.00000000      5.00000000      5.00000000      5.00000000      5.00000000      5.00000000      5.00000000      5.00000000      5.00000000      5.00000000      5.00000000      5.00000000      5.00000000      5.00000000      5.00000000      5.00000000      5.00000000
      5.00000000      5.00000000      5.00000000      5.00000000      0.60000000      0.60000000      0.60000000      0.60000000      0.60000000      0.60000000      0.60000000      0.60000000      0.60000000      0.60000000      0.60000000      0.60000000      0.60000000      0.60000000      0.60000000      0.60000000
      0.60000000      0.60000000      0.60000000      0.60000000      0.60000000      0.60000000      0.60000000      0.60000000      0.60000000      0.60000000      0.60000000      0.60000000      0.60000000      0.60000000      0.60000000      0.60000000      0.60000000      0.60000000      0.60000000      0.60000000
      0.60000000      0.60000000      0.60000000      0.60000000      0.60000000      0.60000000      0.60000000      0.60000000      0.60000000      0.60000000      0.60000000      0.60000000      0.60000000      0.60000000      0.60000000      0.60000000      0.60000000      0.60000000      0.60000000      0.60000000
      0.60000000      0.60000000      0.60000000      0.60000000      0.60000000      0.60000000      0.60000000      0.60000000      0.60000000      0.60000000      0.60000000      0.60000000      0.60000000      0.60000000      0.60000000      0.60000000      0.60000000      0.60000000      0.60000000      0.60000000
      0.60000000      0.60000000      0.60000000      0.60000000      0.60000000      0.60000000      0.60000000      0.60000000</v>
    <i name="NUPDOWN">     -1.00000000</i>
    <i type="logical" name="LSORBIT"> F  </i>
    <v name="SAXIS">      0.00000000      0.00000000      1.00000000</v>
    <i type="logical" name="LSPIRAL"> F  </i>
    <v name="QSPIRAL">      0.00000000      0.00000000      0.00000000</v>
    <i type="logical" name="LZEROZ"> F  </i>
   </separator>
   <separator name="electronic exchange-correlation" >
    <i type="logical" name="LASPH"> F  </i>
    <i type="logical" name="LMETAGGA"> F  </i>
   </separator>
   <separator name="electronic convergence" >
    <i type="int" name="NELM">    40</i>
    <i type="int" name="NELMDL">     0</i>
    <i type="int" name="NELMIN">     8</i>
    <i name="ENINI">    520.00000000</i>
    <separator name="electronic convergence detail" >
     <i type="logical" name="LDIAG"> T  </i>
     <i type="logical" name="LSUBROT"> F  </i>
     <i name="WEIMIN">      0.00100000</i>
     <i name="EBREAK">      0.00000003</i>
     <i name="DEPER">      0.30000000</i>
     <i type="int" name="NRMM">     4</i>
     <i name="TIME">      0.40000000</i>
    </separator>
   </separator>
   <separator name="electronic mixer" >
    <i name="AMIX">      0.40000000</i>
    <i name="BMIX">      1.00000000</i>
    <i name="AMIN">      0.10000000</i>
    <i name="AMIX_MAG">      1.60000000</i>
    <i name="BMIX_MAG">      1.00000000</i>
    <separator name="electronic mixer details" >
     <i type="int" name="IMIX">     4</i>
     <i type="logical" name="MIXFIRST"> F  </i>
     <i type="int" name="MAXMIX">   -45</i>
     <i name="WC">    100.00000000</i>
     <i type="int" name="INIMIX">     1</i>
     <i type="int" name="MIXPRE">     1</i>
     <i type="int" name="MREMOVE">     5</i>
    </separator>
   </separator>
   <separator name="electronic dipolcorrection" >
    <i type="logical" name="LDIPOL"> F  </i>
    <i type="logical" name="LMONO"> F  </i>
    <i type="int" name="IDIPOL">     0</i>
    <i name="EPSILON">      1.00000000</i>
    <v name="DIPOL">   -100.00000000   -100.00000000   -100.00000000</v>
    <i name="EFIELD">      0.00000000</i>
   </separator>
  </separator>
  <separator name="grids" >
   <i type="int" name="NGX">    64</i>
   <i type="int" name="NGY">    64</i>
   <i type="int" name="NGZ">    90</i>
   <i type="int" name="NGXF">   128</i>
   <i type="int" name="NGYF">   128</i>
   <i type="int" name="NGZF">   180</i>
   <i type="logical" name="ADDGRID"> F  </i>
  </separator>
  <separator name="ionic" >
   <i type="int" name="NSW">    30</i>
   <i type="int" name="IBRION">     2</i>
   <i type="int" name="ISIF">     3</i>
   <i name="PSTRESS">      0.00000000</i>
   <i name="EDIFFG">     -0.03000000</i>
   <i type="int" name="NFREE">     1</i>
   <i name="POTIM">      0.50000000</i>
   <i name="SMASS">     -3.00000000</i>
   <i name="SCALEE">      1.00000000</i>
  </separator>
  <separator name="ionic md" >
   <i name="TEBEG">      0.00010000</i>
   <i name="TEEND">      0.00010000</i>
   <i type="int" name="NBLOCK">     1</i>
   <i type="int" name="KBLOCK">    30</i>
   <i type="int" name="NPACO">   256</i>
   <i name="APACO">     16.00000000</i>
  </separator>
  <separator name="symmetry" >
   <i type="int" name="ISYM">     2</i>
   <i name="SYMPREC">      0.00001000</i>
  </separator>
  <separator name="dos" >
   <i type="logical" name="LORBIT"> F  </i>
   <v name="RWIGS">     -1.00000000     -1.00000000     -1.00000000     -1.00000000</v>
   <i type="int" name="NEDOS">   301</i>
   <i name="EMIN">     10.00000000</i>
   <i name="EMAX">    -10.00000000</i>
   <i name="EFERMI">      0.00000000</i>
  </separator>
  <separator name="writing" >
   <i type="int" name="NWRITE">     2</i>
   <i type="logical" name="LWAVE"> T  </i>
   <i type="logical" name="LCHARG"> T  </i>
   <i type="logical" name="LPARD"> F  </i>
   <i type="logical" name="LVTOT"> F  </i>
   <i type="logical" name="LVHAR"> F  </i>
   <i type="logical" name="LELF"> F  </i>
   <i type="logical" name="LOPTICS"> F  </i>
   <v name="STM">      0.00000000      0.00000000      0.00000000      0.00000000      0.00000000      0.00000000      0.00000000</v>
  </separator>
  <separator name="performance" >
   <i type="int" name="NPAR">     2</i>
   <i type="int" name="NSIM">     4</i>
   <i type="int" name="NBLK">    -1</i>
   <i type="logical" name="LPLANE"> T  </i>
   <i type="logical" name="LSCALAPACK"> T  </i>
   <i type="logical" name="LSCAAWARE"> F  </i>
   <i type="logical" name="LSCALU"> F  </i>
   <i type="logical" name="LASYNC"> F  </i>
   <i type="logical" name="LORBITALREAL"> F  </i>
  </separator>
  <separator name="miscellaneous" >
   <i type="int" name="IDIOT">     3</i>
   <i type="logical" name="LMUSIC"> F  </i>
   <v name="POMASS">     87.62000000     47.88000000     55.84700000     16.00000000</v>
   <v name="DARWINR">      0.00000000      0.00000000      0.00000000      0.00000000</v>
   <v name="DARWINV">      1.00000000      1.00000000      1.00000000      1.00000000</v>
   <i type="logical" name="LCORR"> T  </i>
  </separator>
  <i type="logical" name="GGA_COMPAT"> T  </i>
  <i type="logical" name="LBERRY"> F  </i>
  <i type="int" name="ICORELEVEL">     0</i>
  <i type="logical" name="LDAU"> T  </i>
  <v type="int" name="LDAUTYPE">     2</v>
  <v type="int" name="LDAUL">     0</v>
  <v name="LDAUU">      0.00000000</v>
  <v name="LDAUJ">      0.00000000</v>
  <i type="int" name="LDAUPRINT">     1</i>
  <i type="int" name="I_CONSTRAINED_M">     0</i>
  <separator name="electronic exchange-correlation" >
   <i type="string" name="GGA">--</i>
   <i type="int" name="VOSKOWN">     0</i>
   <i type="logical" name="LHFCALC"> F  </i>
   <i type="string" name="PRECFOCK"></i>
   <i type="logical" name="LSYMGRAD"> F  </i>
   <i type="logical" name="LHFONE"> F  </i>
   <i type="logical" name="LRHFCALC"> F  </i>
   <i type="logical" name="LTHOMAS"> F  </i>
   <i type="logical" name="LMODELHF"> F  </i>
   <i name="ENCUT4O">     -1.00000000</i>
   <i type="int" name="EXXOEP">     0</i>
   <i type="int" name="FOURORBIT">     0</i>
   <i name="AEXX">      0.00000000</i>
   <i name="HFALPHA">      0.00000000</i>
   <i name="MCALPHA">      0.00000000</i>
   <i name="ALDAX">      1.00000000</i>
   <i name="AGGAX">      1.00000000</i>
   <i name="ALDAC">      1.00000000</i>
   <i name="AGGAC">      1.00000000</i>
   <i type="int" name="NKREDX">     1</i>
   <i type="int" name="NKREDY">     1</i>
   <i type="int" name="NKREDZ">     1</i>
   <i type="logical" name="SHIFTRED"> F  </i>
   <i type="logical" name="ODDONLY"> F  </i>
   <i type="logical" name="EVENONLY"> F  </i>
   <i type="int" name="LMAXFOCK">     0</i>
   <i type="int" name="NMAXFOCKAE">     0</i>
   <i type="logical" name="LFOCKAEDFT"> F  </i>
   <i name="HFSCREEN">      0.00000000</i>
   <i name="HFSCREENC">      0.00000000</i>
   <i type="int" name="NBANDSGWLOW">     0</i>
  </separator>
  <separator name="vdW DFT" >
   <i type="logical" name="LUSE_VDW"> F  </i>
   <i name="Zab_VDW">     -0.84910000</i>
   <i name="PARAM1">      0.12340000</i>
   <i name="PARAM2">      1.00000000</i>
   <i name="PARAM3">      0.00000000</i>
  </separator>
  <separator name="model GW" >
   <i type="int" name="MODEL_GW">     0</i>
   <i name="MODEL_EPS0">      8.13147788</i>
   <i name="MODEL_ALPHA">      1.00000000</i>
  </separator>
  <separator name="linear response parameters" >
   <i type="logical" name="LEPSILON"> F  </i>
   <i type="logical" name="LRPA"> F  </i>
   <i type="logical" name="LNABLA"> F  </i>
   <i type="logical" name="LVEL"> F  </i>
   <i type="int" name="KINTER">     0</i>
   <i name="CSHIFT">      0.10000000</i>
   <i name="OMEGAMAX">     -1.00000000</i>
   <i name="DEG_THRESHOLD">      0.00200000</i>
  </separator>
  <separator name="orbital magnetization" >
   <i type="logical" name="NUCIND"> F  </i>
   <v name="MAGPOS">      0.00000000      0.00000000      0.00000000</v>
   <i type="logical" name="LNICSALL"> T  </i>
   <i type="logical" name="ORBITALMAG"> F  </i>
   <i type="logical" name="LMAGBLOCH"> F  </i>
   <i type="logical" name="LCHIMAG"> F  </i>
   <i type="logical" name="LGAUGE"> T  </i>
   <i type="int" name="MAGATOM">     0</i>
   <v name="MAGDIPOL">      0.00000000      0.00000000      0.00000000</v>
   <v name="AVECCONST">      0.00000000      0.00000000      0.00000000</v>
  </separator>
  <separator name="response functions" >
   <i type="logical" name="LADDER"> F  </i>
   <i type="logical" name="LFXC"> F  </i>
   <i type="logical" name="LHARTREE"> T  </i>
   <i type="int" name="IBSE">     0</i>
   <v type="int" name="KPOINT">    -1     0     0     0</v>
   <i type="logical" name="LTCTE"> F  </i>
   <i type="logical" name="LTETE"> F  </i>
   <i type="logical" name="LTRIPLET"> F  </i>
   <i type="logical" name="LFXCEPS"> F  </i>
   <i type="logical" name="LFXHEG"> F  </i>
   <i type="int" name="NATURALO">     0</i>
   <i type="logical" name="L2ORDER"> F  </i>
   <i type="logical" name="LUSEW"> F  </i>
   <i name="ENCUTGW">     -2.00000000</i>
   <i name="ENCUTGWSOFT">     -2.00000000</i>
   <i name="ENCUTLF">     -1.00000000</i>
   <i type="int" name="LMAXMP2">    -1</i>
   <i name="SCISSOR">      0.00000000</i>
   <i type="int" name="NOMEGA">     0</i>
   <i type="int" name="NOMEGAR">     0</i>
   <i type="int" name="NBANDSGW">    -1</i>
   <i type="int" name="NBANDSO">    -1</i>
   <i type="int" name="NBANDSV">    -1</i>
   <i type="int" name="NELM">    40</i>
   <i type="int" name="NELMHF">     1</i>
   <i type="int" name="DIM">     3</i>
   <i type="int" name="ANTIRES">     0</i>
   <i name="OMEGAMAX">    -30.00000000</i>
   <i name="OMEGAMIN">    -30.00000000</i>
   <i name="OMEGATL">   -200.00000000</i>
   <i type="int" name="OMEGAGRID">     0</i>
   <i name="CSHIFT">     -0.10000000</i>
   <i type="logical" name="SELFENERGY"> F  </i>
   <i type="logical" name="LSPECTRAL"> F  </i>
   <i type="logical" name="LSPECTRALGW"> F  </i>
   <i type="logical" name="LSINGLES"> F  </i>
   <i type="logical" name="LFERMIGW"> F  </i>
   <i type="logical" name="ODDONLYGW"> F  </i>
   <i type="logical" name="EVENONLYGW"> F  </i>
   <i type="int" name="NKREDLFX">     1</i>
   <i type="int" name="NKREDLFY">     1</i>
   <i type="int" name="NKREDLFZ">     1</i>
   <i type="int" name="MAXMEM">  1800</i>
   <i type="int" name="TELESCOPE">     0</i>
   <i type="int" name="TAUPAR">     1</i>
   <i type="int" name="OMEGAPAR">    -1</i>
   <i name="LAMBDA">      1.00000000</i>
  </separator>
  <separator name="External order field" >
   <i name="OFIELD_KAPPA">      0.00000000</i>
   <v name="OFIELD_K">      0.00000000      0.00000000      0.00000000</v>
   <i name="OFIELD_Q6_NEAR">      0.00000000</i>
   <i name="OFIELD_Q6_FAR">      0.00000000</i>
   <i name="OFIELD_A">      0.00000000</i>
  </separator>
 </parameters>
 <atominfo>
  <atoms>     148 </atoms>
  <types>       4 </types>
  <array name="atoms" >
   <dimension dim="1">ion</dimension>
   <field type="string">element</field>
   <field type="int">atomtype</field>
   <set>
    <rc><c>Sr</c><c>   1</c></rc>
    <rc><c>Sr</c><c>   1</c></rc>
    <rc><c>Sr</c><c>   1</c></rc>
    <rc><c>Sr</c><c>   1</c></rc>
    <rc><c>Sr</c><c>   1</c></rc>
    <rc><c>Sr</c><c>   1</c></rc>
    <rc><c>Sr</c><c>   1</c></rc>
    <rc><c>Sr</c><c>   1</c></rc>
    <rc><c>Sr</c><c>   1</c></rc>
    <rc><c>Sr</c><c>   1</c></rc>
    <rc><c>Sr</c><c>   1</c></rc>
    <rc><c>Sr</c><c>   1</c></rc>
    <rc><c>Sr</c><c>   1</c></rc>
    <rc><c>Sr</c><c>   1</c></rc>
    <rc><c>Sr</c><c>   1</c></rc>
    <rc><c>Sr</c><c>   1</c></rc>
    <rc><c>Sr</c><c>   1</c></rc>
    <rc><c>Sr</c><c>   1</c></rc>
    <rc><c>Sr</c><c>   1</c></rc>
    <rc><c>Sr</c><c>   1</c></rc>
    <rc><c>Sr</c><c>   1</c></rc>
    <rc><c>Sr</c><c>   1</c></rc>
    <rc><c>Sr</c><c>   1</c></rc>
    <rc><c>Sr</c><c>   1</c></rc>
    <rc><c>Sr</c><c>   1</c></rc>
    <rc><c>Sr</c><c>   1</c></rc>
    <rc><c>Sr</c><c>   1</c></rc>
    <rc><c>Sr</c><c>   1</c></rc>
    <rc><c>Sr</c><c>   1</c></rc>
    <rc><c>Sr</c><c>   1</c></rc>
    <rc><c>Sr</c><c>   1</c></rc>
    <rc><c>Sr</c><c>   1</c></rc>
    <rc><c>Ti</c><c>   2</c></rc>
    <rc><c>Ti</c><c>   2</c></rc>
    <rc><c>Ti</c><c>   2</c></rc>
    <rc><c>Ti</c><c>   2</c></rc>
    <rc><c>Ti</c><c>   2</c></rc>
    <rc><c>Ti</c><c>   2</c></rc>
    <rc><c>Ti</c><c>   2</c></rc>
    <rc><c>Ti</c><c>   2</c></rc>
    <rc><c>Fe</c><c>   3</c></rc>
    <rc><c>Fe</c><c>   3</c></rc>
    <rc><c>Fe</c><c>   3</c></rc>
    <rc><c>Fe</c><c>   3</c></rc>
    <rc><c>Fe</c><c>   3</c></rc>
    <rc><c>Fe</c><c>   3</c></rc>
    <rc><c>Fe</c><c>   3</c></rc>
    <rc><c>Fe</c><c>   3</c></rc>
    <rc><c>Fe</c><c>   3</c></rc>
    <rc><c>Fe</c><c>   3</c></rc>
    <rc><c>Fe</c><c>   3</c></rc>
    <rc><c>Fe</c><c>   3</c></rc>
    <rc><c>Fe</c><c>   3</c></rc>
    <rc><c>Fe</c><c>   3</c></rc>
    <rc><c>Fe</c><c>   3</c></rc>
    <rc><c>Fe</c><c>   3</c></rc>
    <rc><c>Fe</c><c>   3</c></rc>
    <rc><c>Fe</c><c>   3</c></rc>
    <rc><c>Fe</c><c>   3</c></rc>
    <rc><c>Fe</c><c>   3</c></rc>
    <rc><c>Fe</c><c>   3</c></rc>
    <rc><c>Fe</c><c>   3</c></rc>
    <rc><c>Fe</c><c>   3</c></rc>
    <rc><c>Fe</c><c>   3</c></rc>
    <rc><c>O </c><c>   4</c></rc>
    <rc><c>O </c><c>   4</c></rc>
    <rc><c>O </c><c>   4</c></rc>
    <rc><c>O </c><c>   4</c></rc>
    <rc><c>O </c><c>   4</c></rc>
    <rc><c>O </c><c>   4</c></rc>
    <rc><c>O </c><c>   4</c></rc>
    <rc><c>O </c><c>   4</c></rc>
    <rc><c>O </c><c>   4</c></rc>
    <rc><c>O </c><c>   4</c></rc>
    <rc><c>O </c><c>   4</c></rc>
    <rc><c>O </c><c>   4</c></rc>
    <rc><c>O </c><c>   4</c></rc>
    <rc><c>O </c><c>   4</c></rc>
    <rc><c>O </c><c>   4</c></rc>
    <rc><c>O </c><c>   4</c></rc>
    <rc><c>O </c><c>   4</c></rc>
    <rc><c>O </c><c>   4</c></rc>
    <rc><c>O </c><c>   4</c></rc>
    <rc><c>O </c><c>   4</c></rc>
    <rc><c>O </c><c>   4</c></rc>
    <rc><c>O </c><c>   4</c></rc>
    <rc><c>O </c><c>   4</c></rc>
    <rc><c>O </c><c>   4</c></rc>
    <rc><c>O </c><c>   4</c></rc>
    <rc><c>O </c><c>   4</c></rc>
    <rc><c>O </c><c>   4</c></rc>
    <rc><c>O </c><c>   4</c></rc>
    <rc><c>O </c><c>   4</c></rc>
    <rc><c>O </c><c>   4</c></rc>
    <rc><c>O </c><c>   4</c></rc>
    <rc><c>O </c><c>   4</c></rc>
    <rc><c>O </c><c>   4</c></rc>
    <rc><c>O </c><c>   4</c></rc>
    <rc><c>O </c><c>   4</c></rc>
    <rc><c>O </c><c>   4</c></rc>
    <rc><c>O </c><c>   4</c></rc>
    <rc><c>O </c><c>   4</c></rc>
    <rc><c>O </c><c>   4</c></rc>
    <rc><c>O </c><c>   4</c></rc>
    <rc><c>O </c><c>   4</c></rc>
    <rc><c>O </c><c>   4</c></rc>
    <rc><c>O </c><c>   4</c></rc>
    <rc><c>O </c><c>   4</c></rc>
    <rc><c>O </c><c>   4</c></rc>
    <rc><c>O </c><c>   4</c></rc>
    <rc><c>O </c><c>   4</c></rc>
    <rc><c>O </c><c>   4</c></rc>
    <rc><c>O </c><c>   4</c></rc>
    <rc><c>O </c><c>   4</c></rc>
    <rc><c>O </c><c>   4</c></rc>
    <rc><c>O </c><c>   4</c></rc>
    <rc><c>O </c><c>   4</c></rc>
    <rc><c>O </c><c>   4</c></rc>
    <rc><c>O </c><c>   4</c></rc>
    <rc><c>O </c><c>   4</c></rc>
    <rc><c>O </c><c>   4</c></rc>
    <rc><c>O </c><c>   4</c></rc>
    <rc><c>O </c><c>   4</c></rc>
    <rc><c>O </c><c>   4</c></rc>
    <rc><c>O </c><c>   4</c></rc>
    <rc><c>O </c><c>   4</c></rc>
    <rc><c>O </c><c>   4</c></rc>
    <rc><c>O </c><c>   4</c></rc>
    <rc><c>O </c><c>   4</c></rc>
    <rc><c>O </c><c>   4</c></rc>
    <rc><c>O </c><c>   4</c></rc>
    <rc><c>O </c><c>   4</c></rc>
    <rc><c>O </c><c>   4</c></rc>
    <rc><c>O </c><c>   4</c></rc>
    <rc><c>O </c><c>   4</c></rc>
    <rc><c>O </c><c>   4</c></rc>
    <rc><c>O </c><c>   4</c></rc>
    <rc><c>O </c><c>   4</c></rc>
    <rc><c>O </c><c>   4</c></rc>
    <rc><c>O </c><c>   4</c></rc>
    <rc><c>O </c><c>   4</c></rc>
    <rc><c>O </c><c>   4</c></rc>
    <rc><c>O </c><c>   4</c></rc>
    <rc><c>O </c><c>   4</c></rc>
    <rc><c>O </c><c>   4</c></rc>
    <rc><c>O </c><c>   4</c></rc>
    <rc><c>O </c><c>   4</c></rc>
    <rc><c>O </c><c>   4</c></rc>
   </set>
  </array>
  <array name="atomtypes" >
   <dimension dim="1">type</dimension>
   <field type="int">atomspertype</field>
   <field type="string">element</field>
   <field>mass</field>
   <field>valence</field>
   <field type="string">pseudopotential</field>
   <set>
    <rc><c>  32</c><c>Sr</c><c>     87.62000000</c><c>     10.00000000</c><c>  PAW_PBE Sr_sv 07Sep2000               </c></rc>
    <rc><c>   8</c><c>Ti</c><c>     47.88000000</c><c>      4.00000000</c><c>  PAW_PBE Ti 08Apr2002                  </c></rc>
    <rc><c>  24</c><c>Fe</c><c>     55.84700000</c><c>      8.00000000</c><c>  PAW_PBE Fe 06Sep2000                  </c></rc>
    <rc><c>  84</c><c>O </c><c>     16.00000000</c><c>      6.00000000</c><c>  PAW_PBE O 08Apr2002                   </c></rc>
   </set>
  </array>
 </atominfo>
 <structure name="initialpos" >
  <crystal>
   <varray name="basis" >
    <v>      11.23294190      -0.00558646       0.00711450 </v>
    <v>      -0.00477246      11.39677822      -0.00242544 </v>
    <v>       0.01002702      -0.00296216      15.66767753 </v>
   </varray>
   <i name="volume">   2005.76454362 </i>
   <varray name="rec_basis" >
    <v>       0.08902393       0.00003727      -0.00005697 </v>
    <v>       0.00004363       0.08774412       0.00001656 </v>
    <v>      -0.00004042       0.00001357       0.06382570 </v>
   </varray>
  </crystal>
  <varray name="positions" >
   <v>       0.99416622       0.25046388       0.11850350 </v>
   <v>       0.00394111       0.25884652       0.60911527 </v>
   <v>       0.01090227       0.74854192       0.11945755 </v>
   <v>       0.99453192       0.75931484       0.60913242 </v>
   <v>       0.51090643       0.24998623       0.12131210 </v>
   <v>       0.49396879       0.25903038       0.60953868 </v>
   <v>       0.49362256       0.75042752       0.12029723 </v>
   <v>       0.50401092       0.75839193       0.60949695 </v>
   <v>       0.99308756       0.25113442       0.37769602 </v>
   <v>       0.00572298       0.25827029       0.89230733 </v>
   <v>       0.01227317       0.75063669       0.37720411 </v>
   <v>       0.99417049       0.75860493       0.89271063 </v>
   <v>       0.51074971       0.25099573       0.37774425 </v>
   <v>       0.49524808       0.25900915       0.89098059 </v>
   <v>       0.49411028       0.75185253       0.37749145 </v>
   <v>       0.50505597       0.75876279       0.89065314 </v>
   <v>       0.24976712       0.98521771       0.11821226 </v>
   <v>       0.24922786       0.99227804       0.61090478 </v>
   <v>       0.24825086       0.51515861       0.12020631 </v>
   <v>       0.25142899       0.48681244       0.60761565 </v>
   <v>       0.75607749       0.01420851       0.12014394 </v>
   <v>       0.75134274       0.98683893       0.60785566 </v>
   <v>       0.75627348       0.48528259       0.11841856 </v>
   <v>       0.74904211       0.49241246       0.61094933 </v>
   <v>       0.25420497       0.98440092       0.37979475 </v>
   <v>       0.24416634       0.99245699       0.88951687 </v>
   <v>       0.25199247       0.51550969       0.37636370 </v>
   <v>       0.24716583       0.48613227       0.89295115 </v>
   <v>       0.75100660       0.01546817       0.37742789 </v>
   <v>       0.75632625       0.98637005       0.89365795 </v>
   <v>       0.75378370       0.48437106       0.37961892 </v>
   <v>       0.75489697       0.49284937       0.89075870 </v>
   <v>       0.50389463       0.50192330       0.00286896 </v>
   <v>       0.50171381       0.00250059       0.49756186 </v>
   <v>       0.50366749       0.50245434       0.49629539 </v>
   <v>       0.25376241       0.75251367       0.24957647 </v>
   <v>       0.00148023       0.50258625       0.49744496 </v>
   <v>       0.00346656       0.00251076       0.49639454 </v>
   <v>       0.50176090       0.00204983       0.00227570 </v>
   <v>       0.75255397       0.25166749       0.24978235 </v>
   <v>       0.75484854       0.24897480       0.99476619 </v>
   <v>       0.00128548       0.50218498       0.00587854 </v>
   <v>       0.49737753       0.49077376       0.24916041 </v>
   <v>       0.25102900       0.24464902       0.01277241 </v>
   <v>       0.97914726       0.03510981       0.74769975 </v>
   <v>       0.00445899       0.00205130       0.00661461 </v>
   <v>       0.25096616       0.74914721       0.99453284 </v>
   <v>       0.73477780       0.71456473       0.74898291 </v>
   <v>       0.25165839       0.24551269       0.48948916 </v>
   <v>       0.25278504       0.74914930       0.50473888 </v>
   <v>       0.75196344       0.24946440       0.50496677 </v>
   <v>       0.75295178       0.74473924       0.01281000 </v>
   <v>       0.75170179       0.74554296       0.48935542 </v>
   <v>       0.25833939       0.27057076       0.25094549 </v>
   <v>       0.23551810       0.21491042       0.74883957 </v>
   <v>       0.51396608       0.99516301       0.24940689 </v>
   <v>       0.23206034       0.71340199       0.75013504 </v>
   <v>       0.73174781       0.21308469       0.74997669 </v>
   <v>       0.75653351       0.77090435       0.25072029 </v>
   <v>       0.99656421       0.98919156       0.25012817 </v>
   <v>       0.01277171       0.49375179       0.25046015 </v>
   <v>       0.98749886       0.53498353       0.74779261 </v>
   <v>       0.48684145       0.03466447       0.75055138 </v>
   <v>       0.47829137       0.53456852       0.75057263 </v>
   <v>       0.01694985       0.02495552       0.13170933 </v>
   <v>       0.00218685       0.97812038       0.63461282 </v>
   <v>       0.98776646       0.52283989       0.13182131 </v>
   <v>       0.01556991       0.47789501       0.63505072 </v>
   <v>       0.49152816       0.01948692       0.12698265 </v>
   <v>       0.51616266       0.97615062       0.63918648 </v>
   <v>       0.51483169       0.51991984       0.12665468 </v>
   <v>       0.50343674       0.47640983       0.63871047 </v>
   <v>       0.01617600       0.02156179       0.37292937 </v>
   <v>       0.00866739       0.97066703       0.85364803 </v>
   <v>       0.98988564       0.52156928       0.37339725 </v>
   <v>       0.02011776       0.47062144       0.85330543 </v>
   <v>       0.49176927       0.02061204       0.37411395 </v>
   <v>       0.51816999       0.97701700       0.86076532 </v>
   <v>       0.51546670       0.52097377       0.37375124 </v>
   <v>       0.50465850       0.47717479       0.86142924 </v>
   <v>       0.24979207       0.20445888       0.36136670 </v>
   <v>       0.26603485       0.27655467       0.85536092 </v>
   <v>       0.25642714       0.74547045       0.37799119 </v>
   <v>       0.26627562       0.77396957       0.85809313 </v>
   <v>       0.75048564       0.24568165       0.37803344 </v>
   <v>       0.76184977       0.27409515       0.85828896 </v>
   <v>       0.74641439       0.70498678       0.36135773 </v>
   <v>       0.76178265       0.77603801       0.85619494 </v>
   <v>       0.25222285       0.20481797       0.14145419 </v>
   <v>       0.26137679       0.27476020       0.63899558 </v>
   <v>       0.25583030       0.74585503       0.12429913 </v>
   <v>       0.26294189       0.77419334       0.64026388 </v>
   <v>       0.75284203       0.24524811       0.12447231 </v>
   <v>       0.76346290       0.27449400       0.64046489 </v>
   <v>       0.74120073       0.70505014       0.14154823 </v>
   <v>       0.76141344       0.77512194       0.63951661 </v>
   <v>       0.14469077       0.38977878       0.25254200 </v>
   <v>       0.40241310       0.35248416       0.25166281 </v>
   <v>       0.64613390       0.39820149       0.25035247 </v>
   <v>       0.88763815       0.36991147       0.25311734 </v>
   <v>       0.14671920       0.89441244       0.25206019 </v>
   <v>       0.38899330       0.87455459       0.25141176 </v>
   <v>       0.64679255       0.89363269       0.25242715 </v>
   <v>       0.90359117       0.84845712       0.25046815 </v>
   <v>       0.12660625       0.12523223       0.51197187 </v>
   <v>       0.37742283       0.12348392       0.51183449 </v>
   <v>       0.62657498       0.12369275       0.51011786 </v>
   <v>       0.87827875       0.12355663       0.50775611 </v>
   <v>       0.12702261       0.37399142       0.48520236 </v>
   <v>       0.37655105       0.37608711       0.48567901 </v>
   <v>       0.62471451       0.37553026       0.49917684 </v>
   <v>       0.87927774       0.37716561       0.49806353 </v>
   <v>       0.12720281       0.62391406       0.50823874 </v>
   <v>       0.37867689       0.62289478       0.50929448 </v>
   <v>       0.62641705       0.62486904       0.51260187 </v>
   <v>       0.87728388       0.62412994       0.51136545 </v>
   <v>       0.12535222       0.87509939       0.49800371 </v>
   <v>       0.37970548       0.87748265       0.49916716 </v>
   <v>       0.62694929       0.87411454       0.48666162 </v>
   <v>       0.87646029       0.87603726       0.48449767 </v>
   <v>       0.06574102       0.18017787       0.74879213 </v>
   <v>       0.31824367       0.06492936       0.74955156 </v>
   <v>       0.56147385       0.18587935       0.74928799 </v>
   <v>       0.80942192       0.06405003       0.74944106 </v>
   <v>       0.06263577       0.68660148       0.74929057 </v>
   <v>       0.30927781       0.56311915       0.74964952 </v>
   <v>       0.56416129       0.67951424       0.74920216 </v>
   <v>       0.81809999       0.56592020       0.74906441 </v>
   <v>       0.12888565       0.12624725       0.98860501 </v>
   <v>       0.37848986       0.12375413       0.98890153 </v>
   <v>       0.62732753       0.12378253       0.99145680 </v>
   <v>       0.87788470       0.12310891       0.99176308 </v>
   <v>       0.12979281       0.37259625       0.01595490 </v>
   <v>       0.37788287       0.37549911       0.01413316 </v>
   <v>       0.62582429       0.37505449       0.00119289 </v>
   <v>       0.87942162       0.37552211       0.00161329 </v>
   <v>       0.12792071       0.62383748       0.99211980 </v>
   <v>       0.37870850       0.62303798       0.99145792 </v>
   <v>       0.62595147       0.62514083       0.98764997 </v>
   <v>       0.87525390       0.62461865       0.99030283 </v>
   <v>       0.12574891       0.87364891       0.00213417 </v>
   <v>       0.37946388       0.87724201       0.00086668 </v>
   <v>       0.62601104       0.87381413       0.01335695 </v>
   <v>       0.87420818       0.87404296       0.01666670 </v>
   <v>       0.60884720       0.14560383       0.25078772 </v>
   <v>       0.86912869       0.11797836       0.25294280 </v>
   <v>       0.11755806       0.64231040       0.25211498 </v>
   <v>       0.37866312       0.62217954       0.25072007 </v>
  </varray>
 </structure>
 <calculation>
  <scstep>
   <time name="dav">  294.19  294.33</time>
   <time name="total">  297.93  298.15</time>
   <energy>
    <i name="alphaZ">   5602.56043518 </i>
    <i name="ewald"> -62941.99680041 </i>
    <i name="hartreedc"> -18688.71682038 </i>
    <i name="XCdc">   3409.80217993 </i>
    <i name="pawpsdc"> 120666.15759374 </i>
    <i name="pawaedc">-120172.46157936 </i>
    <i name="eentropy">     -0.00000000 </i>
    <i name="bandstr">  -7188.10682322 </i>
    <i name="atom">  78316.90445604 </i>
    <i name="e_fr_energy">   -995.85735847 </i>
    <i name="e_wo_entrp">   -995.85735847 </i>
    <i name="e_0_energy">   -995.85735847 </i>
   </energy>
  </scstep>
  <scstep>
   <time name="diag">   33.40   33.42</time>
   <time name="diis">   36.69   36.73</time>
   <time name="orth">   19.03   19.04</time>
   <time name="total">   92.89   93.01</time>
   <energy>
    <i name="e_fr_energy">   -995.85735994 </i>
    <i name="e_wo_entrp">   -995.85735994 </i>
    <i name="e_0_energy">   -995.85735994 </i>
   </energy>
  </scstep>
  <scstep>
   <time name="diag">   33.41   33.42</time>
   <time name="diis">   31.77   31.79</time>
   <time name="orth">   18.99   18.99</time>
   <time name="total">   87.94   87.99</time>
   <energy>
    <i name="e_fr_energy">   -995.85735892 </i>
    <i name="e_wo_entrp">   -995.85735892 </i>
    <i name="e_0_energy">   -995.85735892 </i>
   </energy>
  </scstep>
  <scstep>
   <time name="diag">   33.44   33.44</time>
   <time name="diis">   31.43   31.46</time>
   <time name="orth">   19.02   19.02</time>
   <time name="total">   87.66   87.73</time>
   <energy>
    <i name="e_fr_energy">   -995.85736798 </i>
    <i name="e_wo_entrp">   -995.85736798 </i>
    <i name="e_0_energy">   -995.85736798 </i>
   </energy>
  </scstep>
  <scstep>
   <time name="diag">   33.31   33.34</time>
   <time name="diis">   31.39   31.39</time>
   <time name="orth">   19.05   19.05</time>
   <time name="total">   87.51   87.56</time>
   <energy>
    <i name="e_fr_energy">   -995.85737299 </i>
    <i name="e_wo_entrp">   -995.85737299 </i>
    <i name="e_0_energy">   -995.85737299 </i>
   </energy>
  </scstep>
  <scstep>
   <time name="diag">   33.44   33.44</time>
   <time name="diis">   29.57   29.57</time>
   <time name="orth">   19.00   19.00</time>
   <time name="total">   85.78   85.79</time>
   <energy>
    <i name="e_fr_energy">   -995.85737472 </i>
    <i name="e_wo_entrp">   -995.85737472 </i>
    <i name="e_0_energy">   -995.85737472 </i>
   </energy>
  </scstep>
  <scstep>
   <time name="diag">   33.39   33.41</time>
   <time name="diis">   28.02   28.15</time>
   <time name="orth">   19.03   19.02</time>
   <time name="total">   84.15   84.38</time>
   <energy>
    <i name="e_fr_energy">   -995.85737493 </i>
    <i name="e_wo_entrp">   -995.85737493 </i>
    <i name="e_0_energy">   -995.85737493 </i>
   </energy>
  </scstep>
  <scstep>
   <time name="diag">   33.33   33.35</time>
   <time name="diis">   26.20   26.22</time>
   <time name="orth">   19.02   19.01</time>
   <time name="total">   79.13   79.23</time>
   <energy>
    <i name="alphaZ">   5602.56043518 </i>
    <i name="ewald"> -62941.99680041 </i>
    <i name="hartreedc"> -18688.65859852 </i>
    <i name="XCdc">   3409.79959178 </i>
    <i name="pawpsdc"> 120654.64490254 </i>
    <i name="pawaedc">-120160.88509194 </i>
    <i name="eentropy">     -0.00000000 </i>
    <i name="bandstr">  -7188.22626979 </i>
    <i name="atom">  78316.90445604 </i>
    <i name="e_fr_energy">   -995.85737511 </i>
    <i name="e_wo_entrp">   -995.85737511 </i>
    <i name="e_0_energy">   -995.85737511 </i>
   </energy>
  </scstep>
  <structure>
   <crystal>
    <varray name="basis" >
     <v>      11.23294190      -0.00558646       0.00711450 </v>
     <v>      -0.00477246      11.39677822      -0.00242544 </v>
     <v>       0.01002702      -0.00296216      15.66767753 </v>
    </varray>
    <i name="volume">   2005.76454362 </i>
    <varray name="rec_basis" >
     <v>       0.08902393       0.00003727      -0.00005697 </v>
     <v>       0.00004363       0.08774412       0.00001656 </v>
     <v>      -0.00004042       0.00001357       0.06382570 </v>
    </varray>
   </crystal>
   <varray name="positions" >
    <v>       0.99416622       0.25046388       0.11850350 </v>
    <v>       0.00394111       0.25884652       0.60911527 </v>
    <v>       0.01090227       0.74854192       0.11945755 </v>
    <v>       0.99453192       0.75931484       0.60913242 </v>
    <v>       0.51090643       0.24998623       0.12131210 </v>
    <v>       0.49396879       0.25903038       0.60953868 </v>
    <v>       0.49362256       0.75042752       0.12029723 </v>
    <v>       0.50401092       0.75839193       0.60949695 </v>
    <v>       0.99308756       0.25113442       0.37769602 </v>
    <v>       0.00572298       0.25827029       0.89230733 </v>
    <v>       0.01227317       0.75063669       0.37720411 </v>
    <v>       0.99417049       0.75860493       0.89271063 </v>
    <v>       0.51074971       0.25099573       0.37774425 </v>
    <v>       0.49524808       0.25900915       0.89098059 </v>
    <v>       0.49411028       0.75185253       0.37749145 </v>
    <v>       0.50505597       0.75876279       0.89065314 </v>
    <v>       0.24976712       0.98521771       0.11821226 </v>
    <v>       0.24922786       0.99227804       0.61090478 </v>
    <v>       0.24825086       0.51515861       0.12020631 </v>
    <v>       0.25142899       0.48681244       0.60761565 </v>
    <v>       0.75607749       0.01420851       0.12014394 </v>
    <v>       0.75134274       0.98683893       0.60785566 </v>
    <v>       0.75627348       0.48528259       0.11841856 </v>
    <v>       0.74904211       0.49241246       0.61094933 </v>
    <v>       0.25420497       0.98440092       0.37979475 </v>
    <v>       0.24416634       0.99245699       0.88951687 </v>
    <v>       0.25199247       0.51550969       0.37636370 </v>
    <v>       0.24716583       0.48613227       0.89295115 </v>
    <v>       0.75100660       0.01546817       0.37742789 </v>
    <v>       0.75632625       0.98637005       0.89365795 </v>
    <v>       0.75378370       0.48437106       0.37961892 </v>
    <v>       0.75489697       0.49284937       0.89075870 </v>
    <v>       0.50389463       0.50192330       0.00286896 </v>
    <v>       0.50171381       0.00250059       0.49756186 </v>
    <v>       0.50366749       0.50245434       0.49629539 </v>
    <v>       0.25376241       0.75251367       0.24957647 </v>
    <v>       0.00148023       0.50258625       0.49744496 </v>
    <v>       0.00346656       0.00251076       0.49639454 </v>
    <v>       0.50176090       0.00204983       0.00227570 </v>
    <v>       0.75255397       0.25166749       0.24978235 </v>
    <v>       0.75484854       0.24897480       0.99476619 </v>
    <v>       0.00128548       0.50218498       0.00587854 </v>
    <v>       0.49737753       0.49077376       0.24916041 </v>
    <v>       0.25102900       0.24464902       0.01277241 </v>
    <v>       0.97914726       0.03510981       0.74769975 </v>
    <v>       0.00445899       0.00205130       0.00661461 </v>
    <v>       0.25096616       0.74914721       0.99453284 </v>
    <v>       0.73477780       0.71456473       0.74898291 </v>
    <v>       0.25165839       0.24551269       0.48948916 </v>
    <v>       0.25278504       0.74914930       0.50473888 </v>
    <v>       0.75196344       0.24946440       0.50496677 </v>
    <v>       0.75295178       0.74473924       0.01281000 </v>
    <v>       0.75170179       0.74554296       0.48935542 </v>
    <v>       0.25833939       0.27057076       0.25094549 </v>
    <v>       0.23551810       0.21491042       0.74883957 </v>
    <v>       0.51396608       0.99516301       0.24940689 </v>
    <v>       0.23206034       0.71340199       0.75013504 </v>
    <v>       0.73174781       0.21308469       0.74997669 </v>
    <v>       0.75653351       0.77090435       0.25072029 </v>
    <v>       0.99656421       0.98919156       0.25012817 </v>
    <v>       0.01277171       0.49375179       0.25046015 </v>
    <v>       0.98749886       0.53498353       0.74779261 </v>
    <v>       0.48684145       0.03466447       0.75055138 </v>
    <v>       0.47829137       0.53456852       0.75057263 </v>
    <v>       0.01694985       0.02495552       0.13170933 </v>
    <v>       0.00218685       0.97812038       0.63461282 </v>
    <v>       0.98776646       0.52283989       0.13182131 </v>
    <v>       0.01556991       0.47789501       0.63505072 </v>
    <v>       0.49152816       0.01948692       0.12698265 </v>
    <v>       0.51616266       0.97615062       0.63918648 </v>
    <v>       0.51483169       0.51991984       0.12665468 </v>
    <v>       0.50343674       0.47640983       0.63871047 </v>
    <v>       0.01617600       0.02156179       0.37292937 </v>
    <v>       0.00866739       0.97066703       0.85364803 </v>
    <v>       0.98988564       0.52156928       0.37339725 </v>
    <v>       0.02011776       0.47062144       0.85330543 </v>
    <v>       0.49176927       0.02061204       0.37411395 </v>
    <v>       0.51816999       0.97701700       0.86076532 </v>
    <v>       0.51546670       0.52097377       0.37375124 </v>
    <v>       0.50465850       0.47717479       0.86142924 </v>
    <v>       0.24979207       0.20445888       0.36136670 </v>
    <v>       0.26603485       0.27655467       0.85536092 </v>
    <v>       0.25642714       0.74547045       0.37799119 </v>
    <v>       0.26627562       0.77396957       0.85809313 </v>
    <v>       0.75048564       0.24568165       0.37803344 </v>
    <v>       0.76184977       0.27409515       0.85828896 </v>
    <v>       0.74641439       0.70498678       0.36135773 </v>
    <v>       0.76178265       0.77603801       0.85619494 </v>
    <v>       0.25222285       0.20481797       0.14145419 </v>
    <v>       0.26137679       0.27476020       0.63899558 </v>
    <v>       0.25583030       0.74585503       0.12429913 </v>
    <v>       0.26294189       0.77419334       0.64026388 </v>
    <v>       0.75284203       0.24524811       0.12447231 </v>
    <v>       0.76346290       0.27449400       0.64046489 </v>
    <v>       0.74120073       0.70505014       0.14154823 </v>
    <v>       0.76141344       0.77512194       0.63951661 </v>
    <v>       0.14469077       0.38977878       0.25254200 </v>
    <v>       0.40241310       0.35248416       0.25166281 </v>
    <v>       0.64613390       0.39820149       0.25035247 </v>
    <v>       0.88763815       0.36991147       0.25311734 </v>
    <v>       0.14671920       0.89441244       0.25206019 </v>
    <v>       0.38899330       0.87455459       0.25141176 </v>
    <v>       0.64679255       0.89363269       0.25242715 </v>
    <v>       0.90359117       0.84845712       0.25046815 </v>
    <v>       0.12660625       0.12523223       0.51197187 </v>
    <v>       0.37742283       0.12348392       0.51183449 </v>
    <v>       0.62657498       0.12369275       0.51011786 </v>
    <v>       0.87827875       0.12355663       0.50775611 </v>
    <v>       0.12702261       0.37399142       0.48520236 </v>
    <v>       0.37655105       0.37608711       0.48567901 </v>
    <v>       0.62471451       0.37553026       0.49917684 </v>
    <v>       0.87927774       0.37716561       0.49806353 </v>
    <v>       0.12720281       0.62391406       0.50823874 </v>
    <v>       0.37867689       0.62289478       0.50929448 </v>
    <v>       0.62641705       0.62486904       0.51260187 </v>
    <v>       0.87728388       0.62412994       0.51136545 </v>
    <v>       0.12535222       0.87509939       0.49800371 </v>
    <v>       0.37970548       0.87748265       0.49916716 </v>
    <v>       0.62694929       0.87411454       0.48666162 </v>
    <v>       0.87646029       0.87603726       0.48449767 </v>
    <v>       0.06574102       0.18017787       0.74879213 </v>
    <v>       0.31824367       0.06492936       0.74955156 </v>
    <v>       0.56147385       0.18587935       0.74928799 </v>
    <v>       0.80942192       0.06405003       0.74944106 </v>
    <v>       0.06263577       0.68660148       0.74929057 </v>
    <v>       0.30927781       0.56311915       0.74964952 </v>
    <v>       0.56416129       0.67951424       0.74920216 </v>
    <v>       0.81809999       0.56592020       0.74906441 </v>
    <v>       0.12888565       0.12624725       0.98860501 </v>
    <v>       0.37848986       0.12375413       0.98890153 </v>
    <v>       0.62732753       0.12378253       0.99145680 </v>
    <v>       0.87788470       0.12310891       0.99176308 </v>
    <v>       0.12979281       0.37259625       0.01595490 </v>
    <v>       0.37788287       0.37549911       0.01413316 </v>
    <v>       0.62582429       0.37505449       0.00119289 </v>
    <v>       0.87942162       0.37552211       0.00161329 </v>
    <v>       0.12792071       0.62383748       0.99211980 </v>
    <v>       0.37870850       0.62303798       0.99145792 </v>
    <v>       0.62595147       0.62514083       0.98764997 </v>
    <v>       0.87525390       0.62461865       0.99030283 </v>
    <v>       0.12574891       0.87364891       0.00213417 </v>
    <v>       0.37946388       0.87724201       0.00086668 </v>
    <v>       0.62601104       0.87381413       0.01335695 </v>
    <v>       0.87420818       0.87404296       0.01666670 </v>
    <v>       0.60884720       0.14560383       0.25078772 </v>
    <v>       0.86912869       0.11797836       0.25294280 </v>
    <v>       0.11755806       0.64231040       0.25211498 </v>
    <v>       0.37866312       0.62217954       0.25072007 </v>
   </varray>
  </structure>
  <varray name="forces" >
   <v>       0.03875078      -0.02442326      -0.01821989 </v>
   <v>      -0.00075750      -0.01467957      -0.01491635 </v>
   <v>       0.02902836      -0.00612061      -0.01584202 </v>
   <v>       0.02668555      -0.02048731      -0.02179253 </v>
   <v>       0.01922777       0.00050849      -0.02811627 </v>
   <v>       0.02016244      -0.01104406      -0.02950572 </v>
   <v>       0.01445759      -0.00715950      -0.00186918 </v>
   <v>      -0.01294219      -0.00673498      -0.02535523 </v>
   <v>       0.02950992      -0.00853173      -0.00125184 </v>
   <v>      -0.00274062      -0.02050393       0.02637175 </v>
   <v>       0.05206992       0.00333128       0.03005298 </v>
   <v>       0.03131366      -0.03121088       0.03182672 </v>
   <v>       0.02161481      -0.00944740       0.03441392 </v>
   <v>       0.00919283      -0.01454339       0.02290594 </v>
   <v>       0.01438357      -0.00579327       0.01761067 </v>
   <v>      -0.00574496      -0.01043754       0.02020255 </v>
   <v>      -0.00682658       0.01720596      -0.04320350 </v>
   <v>       0.01872180       0.02005711      -0.03820945 </v>
   <v>       0.01021414      -0.00790706       0.00146590 </v>
   <v>       0.02093720       0.04798903      -0.01770679 </v>
   <v>       0.03231100       0.03658855       0.00535412 </v>
   <v>       0.00174998       0.03925300      -0.02037446 </v>
   <v>       0.00328946       0.01001643      -0.03817319 </v>
   <v>       0.00783158       0.01504726      -0.03704880 </v>
   <v>       0.01787340       0.01419015       0.04873182 </v>
   <v>       0.00232846       0.02817658       0.04366747 </v>
   <v>       0.01990563       0.01823638      -0.00776001 </v>
   <v>       0.00992914       0.03504917       0.02943164 </v>
   <v>       0.00898915       0.03230736      -0.01242850 </v>
   <v>       0.01201752       0.04014375       0.02647745 </v>
   <v>      -0.00996787       0.01144303       0.04442968 </v>
   <v>       0.01345397       0.01094226       0.03175836 </v>
   <v>      -0.03299630      -0.03031459      -0.00833944 </v>
   <v>      -0.02562673      -0.02262052       0.00171915 </v>
   <v>      -0.03771885      -0.01558710       0.03708640 </v>
   <v>      -0.01777545       0.00379761       0.02889507 </v>
   <v>       0.01678155      -0.00621702       0.04962114 </v>
   <v>       0.00669349      -0.02706339       0.04054618 </v>
   <v>       0.01087383       0.03083581       0.03138068 </v>
   <v>      -0.04083571      -0.03975059      -0.01353375 </v>
   <v>       0.01255277      -0.00954107       0.00891198 </v>
   <v>       0.03530882      -0.00582583       0.02209551 </v>
   <v>       0.00768880      -0.02302468       0.00583886 </v>
   <v>      -0.00868652       0.00788248       0.01746789 </v>
   <v>       0.01036034      -0.05214539      -0.00539644 </v>
   <v>      -0.01322439       0.01655462       0.01796927 </v>
   <v>       0.00215847      -0.00448434       0.01546579 </v>
   <v>      -0.03566316      -0.00542695      -0.01229428 </v>
   <v>       0.01907768       0.00088090       0.00336415 </v>
   <v>       0.03147037       0.02126934      -0.00932885 </v>
   <v>       0.00870290       0.00613353      -0.03143928 </v>
   <v>       0.02030652      -0.00245200       0.01113973 </v>
   <v>       0.00166900      -0.00515253       0.00742643 </v>
   <v>      -0.09252008      -0.02109055       0.00548088 </v>
   <v>      -0.02434142      -0.02482916      -0.02189904 </v>
   <v>       0.05152038       0.06042024      -0.00485960 </v>
   <v>       0.03504311       0.00316976      -0.05228495 </v>
   <v>      -0.00062353       0.04974092      -0.03076708 </v>
   <v>       0.04010529      -0.02437631       0.01460840 </v>
   <v>      -0.02715117      -0.02061077      -0.07450710 </v>
   <v>       0.12050625      -0.02859792      -0.05854303 </v>
   <v>      -0.02411548      -0.01164555      -0.02573293 </v>
   <v>      -0.02277839      -0.03442776      -0.01767966 </v>
   <v>       0.00369037      -0.05757032      -0.01789741 </v>
   <v>       0.00243905      -0.01732449       0.02594741 </v>
   <v>      -0.02647402      -0.00132690      -0.01972027 </v>
   <v>       0.00108746       0.00013704       0.03206329 </v>
   <v>      -0.03403952       0.03179410       0.00178134 </v>
   <v>       0.00644754      -0.01080774      -0.03377862 </v>
   <v>      -0.02451379       0.00626961      -0.00844983 </v>
   <v>      -0.00922014      -0.01349752       0.00200604 </v>
   <v>      -0.02691818      -0.01117844      -0.01115604 </v>
   <v>      -0.00447397      -0.01356048       0.00037103 </v>
   <v>      -0.04753126       0.00075149       0.01978574 </v>
   <v>       0.00332852       0.01941632      -0.02837951 </v>
   <v>      -0.04120636       0.01216750       0.01716194 </v>
   <v>       0.01634242      -0.00537846      -0.00607853 </v>
   <v>      -0.03934343       0.00880346       0.03767151 </v>
   <v>      -0.00932195      -0.01568439      -0.05109667 </v>
   <v>      -0.02066780      -0.02112371       0.04117632 </v>
   <v>       0.00207830       0.02544942      -0.01816687 </v>
   <v>      -0.02076544       0.03810638       0.03449526 </v>
   <v>       0.00850234      -0.00661711      -0.07199563 </v>
   <v>      -0.03724556       0.00455033       0.04450187 </v>
   <v>       0.00534850       0.00618365      -0.03975857 </v>
   <v>      -0.01691985       0.00099262       0.02907720 </v>
   <v>      -0.01516712       0.04047164      -0.05772226 </v>
   <v>      -0.02004663       0.04533972       0.02887066 </v>
   <v>       0.02304529       0.00129667       0.00969254 </v>
   <v>      -0.02895594       0.01702610      -0.03596273 </v>
   <v>       0.01561209       0.00913496       0.02651934 </v>
   <v>      -0.02976801      -0.02843065       0.01222280 </v>
   <v>       0.00199040       0.00636803       0.04473215 </v>
   <v>      -0.02566517      -0.02845419      -0.01276054 </v>
   <v>      -0.02318064       0.02527123       0.03947059 </v>
   <v>      -0.02251402       0.01074672      -0.02534784 </v>
   <v>      -0.03308372      -0.05402693       0.00799406 </v>
   <v>       0.05479360       0.02445290       0.00759662 </v>
   <v>       0.01136298       0.03256557       0.00105971 </v>
   <v>       0.01328734       0.00820408       0.00446616 </v>
   <v>       0.03035874       0.01710488       0.00989837 </v>
   <v>       0.00395014       0.00530539       0.00675562 </v>
   <v>       0.00522752      -0.03898161       0.00374495 </v>
   <v>      -0.01992780      -0.05840143      -0.00462854 </v>
   <v>       0.01151904      -0.00231613      -0.00021513 </v>
   <v>      -0.00003859       0.00405805       0.00971972 </v>
   <v>       0.03616069       0.02799542       0.01486989 </v>
   <v>      -0.01070347       0.00824075      -0.01843227 </v>
   <v>      -0.02454610      -0.00848432      -0.00361269 </v>
   <v>      -0.04599556      -0.01446057       0.00539800 </v>
   <v>       0.01785742      -0.03224179       0.01265825 </v>
   <v>      -0.02869107      -0.00273540      -0.00760154 </v>
   <v>       0.00991920       0.00426902      -0.00273974 </v>
   <v>      -0.01309022       0.01436298      -0.00409049 </v>
   <v>       0.03900335       0.01984777       0.01965674 </v>
   <v>      -0.00119373      -0.00088762      -0.00155675 </v>
   <v>      -0.01521526       0.00011849       0.00340151 </v>
   <v>      -0.02184959       0.00520271       0.00519044 </v>
   <v>      -0.00535135      -0.03187724       0.00600111 </v>
   <v>      -0.02810407      -0.01128397      -0.00005780 </v>
   <v>      -0.02921072      -0.00024581      -0.00565817 </v>
   <v>      -0.03931981       0.03485037      -0.00068914 </v>
   <v>       0.00247439       0.00787237       0.00265095 </v>
   <v>      -0.02611760      -0.02760029      -0.00654744 </v>
   <v>      -0.04586368      -0.01384990      -0.00006907 </v>
   <v>      -0.04609023       0.01838214       0.00138969 </v>
   <v>       0.01623898       0.01930880       0.00117525 </v>
   <v>      -0.01121673       0.01599956      -0.00566875 </v>
   <v>      -0.00106794      -0.02532404      -0.01941208 </v>
   <v>       0.02178844      -0.01208092      -0.02135976 </v>
   <v>      -0.02598632      -0.02062557      -0.00895752 </v>
   <v>       0.02530431      -0.01666700       0.01519137 </v>
   <v>      -0.02007956       0.01037169       0.00040989 </v>
   <v>      -0.01258466      -0.00070953      -0.01747652 </v>
   <v>      -0.03281378       0.01730868      -0.00614443 </v>
   <v>      -0.00228030       0.03263694       0.00217996 </v>
   <v>       0.00680978      -0.01203216       0.00606243 </v>
   <v>       0.02301117       0.00266746       0.01921728 </v>
   <v>       0.00649160       0.00109528       0.00296727 </v>
   <v>       0.01649159      -0.00292608      -0.01862819 </v>
   <v>      -0.01182768       0.00916175      -0.00407076 </v>
   <v>      -0.00524148       0.00826821      -0.01542782 </v>
   <v>      -0.01020692      -0.01624903      -0.02422022 </v>
   <v>      -0.01353450       0.00467254       0.00542770 </v>
   <v>       0.02784316      -0.00931469      -0.00084681 </v>
   <v>       0.04724699       0.01611925       0.00557755 </v>
   <v>       0.03087166      -0.03128956       0.00603281 </v>
   <v>       0.08351455       0.02788354       0.00680339 </v>
  </varray>
  <varray name="stress" >
   <v>      -0.73785019       0.04930337       0.16430993 </v>
   <v>       0.04930363       0.04181720       0.15138052 </v>
   <v>       0.16431008       0.15138069       0.64069950 </v>
  </varray>
  <energy>
   <i name="e_fr_energy">   -995.85737511 </i>
   <i name="e_wo_entrp">   -995.85737511 </i>
   <i name="e_0_energy">     -0.00000000 </i>
  </energy>
  <time name="totalsc"> 1054.93 1057.20</time>
 </calculation>
 <calculation>
  <scstep>
   <time name="dav">  284.20  284.26</time>
   <time name="total">  287.95  288.08</time>
   <energy>
    <i name="alphaZ">   5602.68743840 </i>
    <i name="ewald"> -62935.72841782 </i>
    <i name="hartreedc"> -18695.45667013 </i>
    <i name="XCdc">   3409.84896430 </i>
    <i name="pawpsdc"> 120654.73198885 </i>
    <i name="pawaedc">-120160.97220146 </i>
    <i name="eentropy">     -0.00000000 </i>
    <i name="bandstr">  -7187.86556380 </i>
    <i name="atom">  78316.90445604 </i>
    <i name="e_fr_energy">   -995.85000560 </i>
    <i name="e_wo_entrp">   -995.85000560 </i>
    <i name="e_0_energy">   -995.85000560 </i>
   </energy>
  </scstep>
  <scstep>
   <time name="diag">   33.36   33.38</time>
   <time name="diis">   52.48   52.49</time>
   <time name="orth">   18.98   18.98</time>
   <time name="total">  108.58  108.63</time>
   <energy>
    <i name="e_fr_energy">   -995.86371159 </i>
    <i name="e_wo_entrp">   -995.86371159 </i>
    <i name="e_0_energy">   -995.86371159 </i>
   </energy>
  </scstep>
  <scstep>
   <time name="diag">   33.37   33.37</time>
   <time name="diis">   55.04   55.05</time>
   <time name="orth">   18.95   18.95</time>
   <time name="total">  111.10  111.18</time>
   <energy>
    <i name="e_fr_energy">   -995.86556702 </i>
    <i name="e_wo_entrp">   -995.86556702 </i>
    <i name="e_0_energy">   -995.86556702 </i>
   </energy>
  </scstep>
  <scstep>
   <time name="diag">   33.31   33.32</time>
   <time name="diis">   49.03   49.03</time>
   <time name="orth">   18.94   18.94</time>
   <time name="total">  105.01  105.11</time>
   <energy>
    <i name="e_fr_energy">   -995.86519379 </i>
    <i name="e_wo_entrp">   -995.86519379 </i>
    <i name="e_0_energy">   -995.86519379 </i>
   </energy>
  </scstep>
  <scstep>
   <time name="diag">   33.22   33.23</time>
   <time name="diis">   47.27   47.29</time>
   <time name="orth">   18.95   18.95</time>
   <time name="total">  103.17  103.24</time>
   <energy>
    <i name="e_fr_energy">   -995.86504278 </i>
    <i name="e_wo_entrp">   -995.86504278 </i>
    <i name="e_0_energy">   -995.86504278 </i>
   </energy>
  </scstep>
  <scstep>
   <time name="diag">   33.33   33.34</time>
   <time name="diis">   32.83   32.84</time>
   <time name="orth">   18.95   18.95</time>
   <time name="total">   88.85   88.95</time>
   <energy>
    <i name="e_fr_energy">   -995.86504106 </i>
    <i name="e_wo_entrp">   -995.86504106 </i>
    <i name="e_0_energy">   -995.86504106 </i>
   </energy>
  </scstep>
  <scstep>
   <time name="diag">   33.33   33.34</time>
   <time name="diis">   32.56   32.56</time>
   <time name="orth">   18.93   18.94</time>
   <time name="total">   88.56   88.60</time>
   <energy>
    <i name="e_fr_energy">   -995.86504303 </i>
    <i name="e_wo_entrp">   -995.86504303 </i>
    <i name="e_0_energy">   -995.86504303 </i>
   </energy>
  </scstep>
  <scstep>
   <time name="diag">   33.35   33.37</time>
   <time name="diis">   31.80   31.81</time>
   <time name="orth">   18.95   18.95</time>
   <time name="total">   84.69   84.78</time>
   <energy>
    <i name="alphaZ">   5602.68743840 </i>
    <i name="ewald"> -62935.72841782 </i>
    <i name="hartreedc"> -18694.93780203 </i>
    <i name="XCdc">   3409.81195185 </i>
    <i name="pawpsdc"> 120661.34573626 </i>
    <i name="pawaedc">-120167.58558646 </i>
    <i name="eentropy">     -0.00000000 </i>
    <i name="bandstr">  -7188.36281942 </i>
    <i name="atom">  78316.90445604 </i>
    <i name="e_fr_energy">   -995.86504318 </i>
    <i name="e_wo_entrp">   -995.86504318 </i>
    <i name="e_0_energy">   -995.86504318 </i>
   </energy>
  </scstep>
  <structure>
   <crystal>
    <varray name="basis" >
     <v>      11.22956005      -0.00536011       0.00786919 </v>
     <v>      -0.00454189      11.39697245      -0.00172237 </v>
     <v>       0.01107447      -0.00199414      15.67177438 </v>
    </varray>
    <i name="volume">   2005.71907641 </i>
    <varray name="rec_basis" >
     <v>       0.08905074       0.00003548      -0.00006292 </v>
     <v>       0.00004187       0.08774262       0.00001114 </v>
     <v>      -0.00004471       0.00000963       0.06380902 </v>
    </varray>
   </crystal>
   <varray name="positions" >
    <v>       0.99433265       0.25036057       0.11844730 </v>
    <v>       0.00393788       0.25878436       0.60906933 </v>
    <v>       0.01102698       0.74851606       0.11940871 </v>
    <v>       0.99464656       0.75922815       0.60906525 </v>
    <v>       0.51098909       0.24998840       0.12122549 </v>
    <v>       0.49405545       0.25898365       0.60944778 </v>
    <v>       0.49368464       0.75039724       0.12029145 </v>
    <v>       0.50395540       0.75836338       0.60941889 </v>
    <v>       0.99321428       0.25109836       0.37769210 </v>
    <v>       0.00571110       0.25818351       0.89238852 </v>
    <v>       0.01249672       0.75065093       0.37729655 </v>
    <v>       0.99430483       0.75847291       0.89280855 </v>
    <v>       0.51084243       0.25095581       0.37785017 </v>
    <v>       0.49528747       0.25894763       0.89105109 </v>
    <v>       0.49417199       0.75182805       0.37754564 </v>
    <v>       0.50503123       0.75871861       0.89071535 </v>
    <v>       0.24973795       0.98529050       0.11807925 </v>
    <v>       0.24930841       0.99236295       0.61078710 </v>
    <v>       0.24829471       0.51512516       0.12021080 </v>
    <v>       0.25151904       0.48701560       0.60756112 </v>
    <v>       0.75621631       0.01436347       0.12016038 </v>
    <v>       0.75135038       0.98700508       0.60779294 </v>
    <v>       0.75628773       0.48532496       0.11830102 </v>
    <v>       0.74907587       0.49247614       0.61083524 </v>
    <v>       0.25428162       0.98446106       0.37994478 </v>
    <v>       0.24417627       0.99257630       0.88965134 </v>
    <v>       0.25207802       0.51558692       0.37633978 </v>
    <v>       0.24720846       0.48628068       0.89304177 </v>
    <v>       0.75104530       0.01560494       0.37738962 </v>
    <v>       0.75637787       0.98654003       0.89373948 </v>
    <v>       0.75374078       0.48441952       0.37975575 </v>
    <v>       0.75495469       0.49289574       0.89085647 </v>
    <v>       0.50375288       0.50179490       0.00284333 </v>
    <v>       0.50160371       0.00240479       0.49756719 </v>
    <v>       0.50350537       0.50238831       0.49640964 </v>
    <v>       0.25368600       0.75252973       0.24966548 </v>
    <v>       0.00155216       0.50256001       0.49759772 </v>
    <v>       0.00349514       0.00239624       0.49651936 </v>
    <v>       0.50180757       0.00218040       0.00237232 </v>
    <v>       0.75237855       0.25149913       0.24974074 </v>
    <v>       0.75490241       0.24893445       0.99479360 </v>
    <v>       0.00143706       0.50216041       0.00594650 </v>
    <v>       0.49741049       0.49067632       0.24917836 </v>
    <v>       0.25099166       0.24468238       0.01282622 </v>
    <v>       0.97919168       0.03488910       0.74768307 </v>
    <v>       0.00440218       0.00212136       0.00666998 </v>
    <v>       0.25097538       0.74912825       0.99458045 </v>
    <v>       0.73462466       0.71454168       0.74894512 </v>
    <v>       0.25174031       0.24551646       0.48949948 </v>
    <v>       0.25292026       0.74923939       0.50471011 </v>
    <v>       0.75200092       0.24949036       0.50486995 </v>
    <v>       0.75303896       0.74472892       0.01284426 </v>
    <v>       0.75170893       0.74552115       0.48937828 </v>
    <v>       0.25794199       0.27048129       0.25096253 </v>
    <v>       0.23541357       0.21480525       0.74877217 </v>
    <v>       0.51418747       0.99541888       0.24939186 </v>
    <v>       0.23221099       0.71341544       0.74997398 </v>
    <v>       0.73174530       0.21329522       0.74988199 </v>
    <v>       0.75670567       0.77080127       0.25076518 </v>
    <v>       0.99644777       0.98910419       0.24989879 </v>
    <v>       0.01328936       0.49363094       0.25027963 </v>
    <v>       0.98739534       0.53493416       0.74771341 </v>
    <v>       0.48674361       0.03451867       0.75049697 </v>
    <v>       0.47830717       0.53432482       0.75051747 </v>
    <v>       0.01696022       0.02488221       0.13178921 </v>
    <v>       0.00207321       0.97811469       0.63455215 </v>
    <v>       0.98777104       0.52284050       0.13192004 </v>
    <v>       0.01542377       0.47802952       0.63505629 </v>
    <v>       0.49155593       0.01944115       0.12687862 </v>
    <v>       0.51605742       0.97617710       0.63916051 </v>
    <v>       0.51479206       0.51986269       0.12666086 </v>
    <v>       0.50332114       0.47636245       0.63867617 </v>
    <v>       0.01615676       0.02150438       0.37293052 </v>
    <v>       0.00846320       0.97067013       0.85370905 </v>
    <v>       0.98990005       0.52165145       0.37330987 </v>
    <v>       0.01994076       0.47067287       0.85335836 </v>
    <v>       0.49183947       0.02058931       0.37409520 </v>
    <v>       0.51800094       0.97705421       0.86088140 </v>
    <v>       0.51542678       0.52090731       0.37359392 </v>
    <v>       0.50456959       0.47708537       0.86155606 </v>
    <v>       0.24980110       0.20456660       0.36131078 </v>
    <v>       0.26594564       0.27671596       0.85546720 </v>
    <v>       0.25646384       0.74544240       0.37776949 </v>
    <v>       0.26611555       0.77398879       0.85823024 </v>
    <v>       0.75050873       0.24570780       0.37791101 </v>
    <v>       0.76177702       0.27409934       0.85837853 </v>
    <v>       0.74634949       0.70515802       0.36118005 </v>
    <v>       0.76169655       0.77622991       0.85628391 </v>
    <v>       0.25232180       0.20482352       0.14148399 </v>
    <v>       0.26125256       0.27483218       0.63888491 </v>
    <v>       0.25589729       0.74589375       0.12438076 </v>
    <v>       0.26281396       0.77407294       0.64030155 </v>
    <v>       0.75285047       0.24527511       0.12461005 </v>
    <v>       0.76335266       0.27437348       0.64042563 </v>
    <v>       0.74110111       0.70515709       0.14166983 </v>
    <v>       0.76131683       0.77516737       0.63943861 </v>
    <v>       0.14454857       0.38955002       0.25256664 </v>
    <v>       0.40264845       0.35258779       0.25168611 </v>
    <v>       0.64618276       0.39833937       0.25035574 </v>
    <v>       0.88769521       0.36994623       0.25313107 </v>
    <v>       0.14684959       0.89448491       0.25209062 </v>
    <v>       0.38901025       0.87457706       0.25143256 </v>
    <v>       0.64681492       0.89346769       0.25243864 </v>
    <v>       0.90350549       0.84820986       0.25045390 </v>
    <v>       0.12665572       0.12522245       0.51197119 </v>
    <v>       0.37742264       0.12350111       0.51186442 </v>
    <v>       0.62673029       0.12381135       0.51016359 </v>
    <v>       0.87823285       0.12359148       0.50769938 </v>
    <v>       0.12691718       0.37395545       0.48519128 </v>
    <v>       0.37635347       0.37602581       0.48569571 </v>
    <v>       0.62479111       0.37539383       0.49921576 </v>
    <v>       0.87915454       0.37715396       0.49804017 </v>
    <v>       0.12724542       0.62393215       0.50823028 </v>
    <v>       0.37862071       0.62295555       0.50928192 </v>
    <v>       0.62658454       0.62495315       0.51266234 </v>
    <v>       0.87727875       0.62412618       0.51136066 </v>
    <v>       0.12528686       0.87509986       0.49801421 </v>
    <v>       0.37961164       0.87750463       0.49918319 </v>
    <v>       0.62692623       0.87397959       0.48668009 </v>
    <v>       0.87633957       0.87598944       0.48449754 </v>
    <v>       0.06561559       0.18017677       0.74877477 </v>
    <v>       0.31807486       0.06507680       0.74954953 </v>
    <v>       0.56148448       0.18591269       0.74929615 </v>
    <v>       0.80930972       0.06393313       0.74942093 </v>
    <v>       0.06243878       0.68654276       0.74929043 </v>
    <v>       0.30907989       0.56319687       0.74965390 </v>
    <v>       0.56423106       0.67959601       0.74920576 </v>
    <v>       0.81805186       0.56598789       0.74904699 </v>
    <v>       0.12888107       0.12614004       0.98854522 </v>
    <v>       0.37858347       0.12370302       0.98883571 </v>
    <v>       0.62721591       0.12369516       0.99142926 </v>
    <v>       0.87799331       0.12303843       0.99180980 </v>
    <v>       0.12970659       0.37264011       0.01595621 </v>
    <v>       0.37782887       0.37549607       0.01407938 </v>
    <v>       0.62568341       0.37512768       0.00117405 </v>
    <v>       0.87941188       0.37566026       0.00162003 </v>
    <v>       0.12794992       0.62378656       0.99213844 </v>
    <v>       0.37880728       0.62304933       0.99151705 </v>
    <v>       0.62597934       0.62514548       0.98765910 </v>
    <v>       0.87532478       0.62460629       0.99024544 </v>
    <v>       0.12569814       0.87368767       0.00212166 </v>
    <v>       0.37944142       0.87727698       0.00081919 </v>
    <v>       0.62596724       0.87374530       0.01328238 </v>
    <v>       0.87415005       0.87406271       0.01668344 </v>
    <v>       0.60896676       0.14556446       0.25078505 </v>
    <v>       0.86933162       0.11804669       0.25295990 </v>
    <v>       0.11769057       0.64217802       0.25213348 </v>
    <v>       0.37902183       0.62229776       0.25074087 </v>
   </varray>
  </structure>
  <varray name="forces" >
   <v>       0.01752432      -0.01255941      -0.00014043 </v>
   <v>      -0.00190582      -0.01165310      -0.01244689 </v>
   <v>       0.02153233      -0.00807251      -0.00898415 </v>
   <v>       0.01041691      -0.02139230      -0.00648807 </v>
   <v>       0.00338227       0.01273126      -0.01170256 </v>
   <v>       0.02522134      -0.02391425      -0.01207730 </v>
   <v>       0.01911047      -0.00674351       0.00939217 </v>
   <v>       0.00979117      -0.00399630      -0.00714108 </v>
   <v>       0.01359492      -0.00415409      -0.01383546 </v>
   <v>       0.00035598      -0.00820088       0.00844713 </v>
   <v>       0.03134706      -0.00429661       0.01054551 </v>
   <v>       0.02508665      -0.02778954       0.01297568 </v>
   <v>       0.01707787       0.00250893       0.01860823 </v>
   <v>       0.00696765      -0.02183142       0.00525941 </v>
   <v>       0.02851081      -0.00973593      -0.01939188 </v>
   <v>       0.00504361      -0.00050115       0.02756393 </v>
   <v>       0.00290054      -0.00312111      -0.02481892 </v>
   <v>       0.00541488       0.02112695      -0.01094121 </v>
   <v>       0.02972522       0.00525004       0.00614254 </v>
   <v>       0.00304544       0.02914991      -0.00756136 </v>
   <v>       0.02319491       0.00887050       0.00613477 </v>
   <v>       0.00155121       0.02752882      -0.01214737 </v>
   <v>      -0.00422198       0.01973544      -0.01341295 </v>
   <v>       0.01460962       0.01325698      -0.02107133 </v>
   <v>       0.00168230       0.01737141       0.00766122 </v>
   <v>       0.01409410       0.01491785       0.03224323 </v>
   <v>       0.01917634       0.01585890      -0.01740579 </v>
   <v>       0.00140716       0.02774053       0.01410363 </v>
   <v>       0.02129020       0.01545853      -0.01088162 </v>
   <v>       0.00628377       0.01800414       0.00978316 </v>
   <v>       0.00504797       0.01355083       0.01223892 </v>
   <v>       0.01554014       0.01784552       0.02280017 </v>
   <v>       0.00374583       0.01211561       0.02625395 </v>
   <v>       0.04526286       0.00786055      -0.01307766 </v>
   <v>       0.02170636      -0.00684700      -0.04659459 </v>
   <v>       0.04144503       0.02161171      -0.02324412 </v>
   <v>      -0.00851689      -0.01166304      -0.03332489 </v>
   <v>      -0.02975224       0.00084749      -0.03760232 </v>
   <v>       0.00562634      -0.05208865       0.00255495 </v>
   <v>       0.02596355       0.04728617       0.01953850 </v>
   <v>       0.00333710       0.01405423       0.00379619 </v>
   <v>       0.01437104       0.00134134       0.01724587 </v>
   <v>       0.02557406       0.00819733      -0.01304005 </v>
   <v>       0.00514011       0.00631273      -0.00311748 </v>
   <v>      -0.01832990      -0.03398074       0.00717444 </v>
   <v>      -0.00521631      -0.02282062       0.00188867 </v>
   <v>       0.01803474       0.01378547       0.01697331 </v>
   <v>       0.00250428       0.03362975       0.02246748 </v>
   <v>      -0.01397390       0.00684220       0.00853864 </v>
   <v>      -0.00250604       0.00766502      -0.02890106 </v>
   <v>       0.01906045      -0.00255413      -0.03035623 </v>
   <v>      -0.01014727      -0.00040053       0.00922412 </v>
   <v>       0.01301210       0.00701535      -0.00239956 </v>
   <v>       0.04939883       0.00409928       0.00081159 </v>
   <v>      -0.01916215       0.02627928       0.02139716 </v>
   <v>       0.02776031      -0.01369863      -0.01703362 </v>
   <v>      -0.02178977       0.01839646       0.05684547 </v>
   <v>       0.01020105       0.01171468       0.01042940 </v>
   <v>      -0.00930324      -0.02950500      -0.01031782 </v>
   <v>      -0.01870453      -0.03792915       0.01424559 </v>
   <v>      -0.00472851       0.00302295       0.01246445 </v>
   <v>      -0.01996650      -0.00483550       0.02822227 </v>
   <v>      -0.00382598      -0.00811948       0.03271277 </v>
   <v>       0.00205736      -0.01192106       0.02960987 </v>
   <v>       0.00342909      -0.00551445      -0.02283399 </v>
   <v>      -0.01671605      -0.00430340      -0.02673294 </v>
   <v>       0.01198818       0.00438269      -0.01960765 </v>
   <v>      -0.02770881       0.01687468      -0.02856491 </v>
   <v>       0.01193568       0.00599834       0.00485669 </v>
   <v>      -0.03425150       0.00108040      -0.02184913 </v>
   <v>      -0.01292491      -0.02213506      -0.03234683 </v>
   <v>      -0.02752418      -0.00474647      -0.02214045 </v>
   <v>      -0.00633133      -0.02516967       0.01390725 </v>
   <v>      -0.04149161       0.00778401       0.01349336 </v>
   <v>       0.01575000       0.00929386       0.02659677 </v>
   <v>      -0.03975010       0.01271361      -0.00034724 </v>
   <v>       0.01593199       0.00100522       0.02439220 </v>
   <v>      -0.04201804       0.02487630      -0.01316359 </v>
   <v>      -0.01651536      -0.01999646       0.07033281 </v>
   <v>      -0.02772913       0.00198210      -0.01314027 </v>
   <v>       0.00075703       0.01422943       0.00685323 </v>
   <v>      -0.03235386       0.01086919      -0.01530781 </v>
   <v>       0.00498096       0.00379783       0.01836429 </v>
   <v>      -0.04482728      -0.02175026      -0.01054177 </v>
   <v>      -0.00313626      -0.00441105      -0.01701569 </v>
   <v>      -0.01905201      -0.01239550       0.01473279 </v>
   <v>      -0.01976369       0.01051617       0.02024520 </v>
   <v>      -0.02802021       0.01855684      -0.02306889 </v>
   <v>       0.01149964       0.00263857      -0.00566210 </v>
   <v>      -0.03072363       0.01385529      -0.02010853 </v>
   <v>       0.00569001       0.00207548       0.00853633 </v>
   <v>      -0.01392759      -0.00252743      -0.04476014 </v>
   <v>      -0.00217535      -0.00345929      -0.01358671 </v>
   <v>      -0.01553814      -0.01129632      -0.01937955 </v>
   <v>      -0.00976729       0.00500168      -0.00509451 </v>
   <v>      -0.02142832       0.00471509      -0.01245442 </v>
   <v>       0.00354875      -0.06324931       0.00295675 </v>
   <v>      -0.05251128      -0.05687996       0.00833679 </v>
   <v>       0.02966595       0.00707732      -0.00081779 </v>
   <v>       0.01026537      -0.00864805      -0.00360291 </v>
   <v>       0.00515109       0.01838625       0.00572816 </v>
   <v>       0.02190110       0.03165955       0.01039872 </v>
   <v>      -0.01521016       0.00746695       0.00253595 </v>
   <v>       0.05442847      -0.00921077      -0.00738155 </v>
   <v>       0.01546815      -0.00710039       0.00177633 </v>
   <v>       0.00648216      -0.00445610      -0.00073077 </v>
   <v>      -0.00980218      -0.00851830       0.00530909 </v>
   <v>       0.00598182      -0.00302195      -0.01082389 </v>
   <v>      -0.01021241      -0.00562820       0.00751444 </v>
[...]
       <r>   -17.7853     0.0000    32.0000 </r>
       <r>   -17.6304     0.0000    32.0000 </r>
       <r>   -17.4755     0.0000    32.0000 </r>
       <r>   -17.3206     0.0000    32.0000 </r>
       <r>   -17.1657     0.0000    32.0000 </r>
       <r>   -17.0108     0.0000    32.0000 </r>
       <r>   -16.8559     0.0000    32.0000 </r>
       <r>   -16.7010     0.0000    32.0000 </r>
       <r>   -16.5461     0.0000    32.0000 </r>
       <r>   -16.3912     0.0000    32.0000 </r>
       <r>   -16.2363     0.0000    32.0000 </r>
       <r>   -16.0814     0.0000    32.0000 </r>
       <r>   -15.9265     0.0000    32.0000 </r>
       <r>   -15.7716     0.0000    32.0000 </r>
       <r>   -15.6167     0.0000    32.0000 </r>
       <r>   -15.4618     0.0000    32.0000 </r>
       <r>   -15.3069     0.0107    32.0017 </r>
       <r>   -15.1520     6.8125    33.0569 </r>
       <r>   -14.9971    26.4950    37.1609 </r>
       <r>   -14.8422    49.7948    44.8740 </r>
       <r>   -14.6873    45.1571    51.8687 </r>
       <r>   -14.5325    42.1155    58.3922 </r>
       <r>   -14.3776    39.0001    64.4332 </r>
       <r>   -14.2227    53.7839    72.7642 </r>
       <r>   -14.0678    70.1218    83.6259 </r>
       <r>   -13.9129    80.9751    96.1687 </r>
       <r>   -13.7580    65.2806   106.2805 </r>
       <r>   -13.6031    38.3200   112.2161 </r>
       <r>   -13.4482    22.2126   115.6568 </r>
       <r>   -13.2933     2.2158   116.0000 </r>
       <r>   -13.1384     0.0000   116.0000 </r>
       <r>   -12.9835     0.0033   116.0005 </r>
       <r>   -12.8286     9.2624   117.4352 </r>
       <r>   -12.6737    52.3718   125.5475 </r>
       <r>   -12.5188    67.1460   135.9482 </r>
       <r>   -12.3639    77.9897   148.0286 </r>
       <r>   -12.2090    97.4994   163.1310 </r>
       <r>   -12.0541    94.7421   177.8062 </r>
       <r>   -11.8992    90.8468   191.8781 </r>
       <r>   -11.7443    67.1931   202.2862 </r>
       <r>   -11.5894    47.3011   209.6130 </r>
       <r>   -11.4345    15.4019   211.9987 </r>
       <r>   -11.2796     0.0086   212.0000 </r>
       <r>   -11.1247     0.0000   212.0000 </r>
       <r>   -10.9698     0.0000   212.0000 </r>
       <r>   -10.8149     0.0000   212.0000 </r>
       <r>   -10.6600     0.0000   212.0000 </r>
       <r>   -10.5051     0.0000   212.0000 </r>
       <r>   -10.3502     0.0000   212.0000 </r>
       <r>   -10.1953     0.0000   212.0000 </r>
       <r>   -10.0404     0.0000   212.0000 </r>
       <r>    -9.8855     0.0000   212.0000 </r>
       <r>    -9.7306     0.0000   212.0000 </r>
       <r>    -9.5757     0.0000   212.0000 </r>
       <r>    -9.4208     0.0000   212.0000 </r>
       <r>    -9.2659     0.0000   212.0000 </r>
       <r>    -9.1111     0.0000   212.0000 </r>
       <r>    -8.9562     0.0000   212.0000 </r>
       <r>    -8.8013     0.0000   212.0000 </r>
       <r>    -8.6464     0.0000   212.0000 </r>
       <r>    -8.4915     0.0000   212.0000 </r>
       <r>    -8.3366     0.0000   212.0000 </r>
       <r>    -8.1817     0.0000   212.0000 </r>
       <r>    -8.0268     0.0000   212.0000 </r>
       <r>    -7.8719     0.0000   212.0000 </r>
       <r>    -7.7170     0.0000   212.0000 </r>
       <r>    -7.5621     0.0000   212.0000 </r>
       <r>    -7.4072     0.0000   212.0000 </r>
       <r>    -7.2523     0.0000   212.0000 </r>
       <r>    -7.0974     0.0000   212.0000 </r>
       <r>    -6.9425     0.0000   212.0000 </r>
       <r>    -6.7876     0.0000   212.0000 </r>
       <r>    -6.6327     0.0000   212.0000 </r>
       <r>    -6.4778     0.0000   212.0000 </r>
       <r>    -6.3229     0.0000   212.0000 </r>
       <r>    -6.1680     0.0000   212.0000 </r>
       <r>    -6.0131     0.0000   212.0000 </r>
       <r>    -5.8582     0.0000   212.0000 </r>
       <r>    -5.7033     0.0000   212.0000 </r>
       <r>    -5.5484     0.0000   212.0000 </r>
       <r>    -5.3935     0.0000   212.0000 </r>
       <r>    -5.2386     0.0000   212.0000 </r>
       <r>    -5.0837     0.0000   212.0000 </r>
       <r>    -4.9288     0.0000   212.0000 </r>
       <r>    -4.7739     0.0000   212.0000 </r>
       <r>    -4.6190     0.0000   212.0000 </r>
       <r>    -4.4641     0.0000   212.0000 </r>
       <r>    -4.3092     0.0000   212.0000 </r>
       <r>    -4.1543     0.0000   212.0000 </r>
       <r>    -3.9994     0.0000   212.0000 </r>
       <r>    -3.8446     0.0000   212.0000 </r>
       <r>    -3.6897     0.0000   212.0000 </r>
       <r>    -3.5348     0.0000   212.0000 </r>
       <r>    -3.3799     0.0000   212.0000 </r>
       <r>    -3.2250     0.0000   212.0000 </r>
       <r>    -3.0701     0.0000   212.0000 </r>
       <r>    -2.9152     0.0000   212.0000 </r>
       <r>    -2.7603     0.0000   212.0000 </r>
       <r>    -2.6054     2.2292   212.3453 </r>
       <r>    -2.4505     7.6277   213.5268 </r>
       <r>    -2.2956    15.6159   215.9457 </r>
       <r>    -2.1407    21.7651   219.3170 </r>
       <r>    -1.9858    21.0587   222.5789 </r>
       <r>    -1.8309    16.3949   225.1184 </r>
       <r>    -1.6760    29.0913   229.6246 </r>
       <r>    -1.5211    37.3779   235.4143 </r>
       <r>    -1.3662    49.9173   243.1464 </r>
       <r>    -1.2113    46.4840   250.3466 </r>
       <r>    -1.0564    71.1340   261.3650 </r>
       <r>    -0.9015    74.0527   272.8356 </r>
       <r>    -0.7466    80.1261   285.2469 </r>
       <r>    -0.5917    97.1270   300.2916 </r>
       <r>    -0.4368    88.2697   313.9643 </r>
       <r>    -0.2819    67.8066   324.4674 </r>
       <r>    -0.1270    68.9238   335.1435 </r>
       <r>     0.0279    61.1038   344.6083 </r>
       <r>     0.1828    59.2843   353.7912 </r>
       <r>     0.3377    53.1368   362.0219 </r>
       <r>     0.4926    52.9522   370.2241 </r>
       <r>     0.6475    59.2407   379.4003 </r>
       <r>     0.8024    51.8326   387.4290 </r>
       <r>     0.9573    65.4390   397.5653 </r>
       <r>     1.1122    67.9598   408.0921 </r>
       <r>     1.2671    69.1877   418.8091 </r>
       <r>     1.4219    70.9533   429.7995 </r>
       <r>     1.5768    76.9298   441.7157 </r>
       <r>     1.7317    64.6250   451.7260 </r>
       <r>     1.8866    42.0957   458.2465 </r>
       <r>     2.0415    15.8470   460.7011 </r>
       <r>     2.1964    14.3040   462.9168 </r>
       <r>     2.3513     6.8852   463.9833 </r>
       <r>     2.5062     0.1081   464.0000 </r>
       <r>     2.6611     0.0000   464.0000 </r>
       <r>     2.8160     0.0000   464.0000 </r>
       <r>     2.9709     0.0000   464.0000 </r>
       <r>     3.1258     0.0000   464.0000 </r>
       <r>     3.2807     0.0000   464.0000 </r>
       <r>     3.4356     0.0000   464.0000 </r>
       <r>     3.5905     0.0000   464.0000 </r>
       <r>     3.7454     0.0000   464.0000 </r>
       <r>     3.9003     0.0000   464.0000 </r>
       <r>     4.0552     0.0029   464.0005 </r>
       <r>     4.2101     5.4478   464.8443 </r>
       <r>     4.3650    44.9736   471.8106 </r>
       <r>     4.5199    75.0827   483.4407 </r>
       <r>     4.6748    69.5582   494.2150 </r>
       <r>     4.8297    80.8479   506.7382 </r>
       <r>     4.9846    79.8279   519.1033 </r>
       <r>     5.1395    70.2696   529.9878 </r>
       <r>     5.2944    73.6426   541.3948 </r>
       <r>     5.4493    72.7522   552.6640 </r>
       <r>     5.6042    79.0509   564.9087 </r>
       <r>     5.7591    86.7585   578.3473 </r>
       <r>     5.9140    99.5149   593.7619 </r>
       <r>     6.0689    62.4503   603.4353 </r>
       <r>     6.2238    11.8007   605.2632 </r>
       <r>     6.3787    10.5553   606.8982 </r>
       <r>     6.5336     0.6575   607.0000 </r>
       <r>     6.6885     0.9771   607.1513 </r>
       <r>     6.8433    11.7270   608.9678 </r>
       <r>     6.9982     8.2346   610.2433 </r>
       <r>     7.1531    15.0899   612.5807 </r>
       <r>     7.3080    14.7794   614.8700 </r>
       <r>     7.4629    12.0818   616.7414 </r>
       <r>     7.6178    19.2576   619.7244 </r>
       <r>     7.7727    21.1515   623.0007 </r>
       <r>     7.9276    16.3109   625.5272 </r>
       <r>     8.0825    17.3882   628.2206 </r>
       <r>     8.2374    20.4071   631.3816 </r>
       <r>     8.3923    27.0924   635.5781 </r>
       <r>     8.5472    25.4986   639.5278 </r>
       <r>     8.7021    14.8971   641.8353 </r>
       <r>     8.8570    26.3829   645.9220 </r>
       <r>     9.0119    30.6626   650.6715 </r>
       <r>     9.1668    32.4553   655.6987 </r>
       <r>     9.3217    45.4078   662.7323 </r>
       <r>     9.4766    47.4229   670.0779 </r>
       <r>     9.6315    47.8064   677.4830 </r>
       <r>     9.7864    46.6293   684.7058 </r>
       <r>     9.9413    50.5597   692.5373 </r>
       <r>    10.0962    50.8125   700.4080 </r>
       <r>    10.2511    54.3900   708.8329 </r>
       <r>    10.4060    56.0290   717.5116 </r>
       <r>    10.5609    49.2959   725.1474 </r>
       <r>    10.7158    47.2384   732.4645 </r>
       <r>    10.8707    57.0810   741.3061 </r>
       <r>    11.0256    54.1249   749.6899 </r>
       <r>    11.1805    50.5468   757.5195 </r>
       <r>    11.3354    49.8533   765.2416 </r>
       <r>    11.4903    17.7969   767.9983 </r>
       <r>    11.6452     0.0108   768.0000 </r>
       <r>    11.8001     0.0000   768.0000 </r>
       <r>    11.9550     0.0000   768.0000 </r>
       <r>    12.1098     0.0000   768.0000 </r>
       <r>    12.2647     0.0000   768.0000 </r>
       <r>    12.4196     0.0000   768.0000 </r>
       <r>    12.5745     0.0000   768.0000 </r>
       <r>    12.7294     0.0000   768.0000 </r>
       <r>    12.8843     0.0000   768.0000 </r>
       <r>    13.0392     0.0000   768.0000 </r>
       <r>    13.1941     0.0000   768.0000 </r>
       <r>    13.3490     0.0000   768.0000 </r>
       <r>    13.5039     0.0000   768.0000 </r>
      </set>
     </set>
    </array>
   </total>
  </dos>
 </calculation>
 <structure name="finalpos" >
  <crystal>
   <varray name="basis" >
    <v>      11.22194590      -0.00564225       0.00903870 </v>
    <v>      -0.00483512      11.38846985      -0.00060806 </v>
    <v>       0.01268544      -0.00045536      15.69329442 </v>
   </varray>
   <i name="volume">   2005.61372676 </i>
   <varray name="rec_basis" >
    <v>       0.08911118       0.00003783      -0.00007203 </v>
    <v>       0.00004415       0.08780813       0.00000251 </v>
    <v>      -0.00005132       0.00000338       0.06372153 </v>
   </varray>
  </crystal>
  <varray name="positions" >
   <v>       0.99553921       0.24973255       0.11887161 </v>
   <v>       0.00348924       0.25852432       0.60854666 </v>
   <v>       0.01289120       0.74830994       0.11928722 </v>
   <v>       0.99513793       0.75842480       0.60865911 </v>
   <v>       0.51147057       0.25051039       0.12096684 </v>
   <v>       0.49459399       0.25843277       0.60924796 </v>
   <v>       0.49517673       0.75000874       0.12059579 </v>
   <v>       0.50390670       0.75839188       0.60911642 </v>
   <v>       0.99510192       0.25046980       0.37706304 </v>
   <v>       0.00597597       0.25804266       0.89276779 </v>
   <v>       0.01441402       0.75033031       0.37729666 </v>
   <v>       0.99521107       0.75785556       0.89311053 </v>
   <v>       0.51127401       0.25111167       0.37826467 </v>
   <v>       0.49516965       0.25865511       0.89099733 </v>
   <v>       0.49635982       0.75159209       0.37724937 </v>
   <v>       0.50561595       0.75865904       0.89105723 </v>
   <v>       0.25037153       0.98572824       0.11776282 </v>
   <v>       0.24972536       0.99254044       0.61042570 </v>
   <v>       0.25008508       0.51521675       0.12052903 </v>
   <v>       0.25118386       0.48805856       0.60732475 </v>
   <v>       0.75707032       0.01527049       0.12028094 </v>
   <v>       0.75129302       0.98765014       0.60752086 </v>
   <v>       0.75642795       0.48586722       0.11785382 </v>
   <v>       0.74963134       0.49245309       0.61040372 </v>
   <v>       0.25497147       0.98517857       0.38024801 </v>
   <v>       0.24467127       0.99284454       0.89004153 </v>
   <v>       0.25429578       0.51569970       0.37576068 </v>
   <v>       0.24663408       0.48719256       0.89331687 </v>
   <v>       0.75162207       0.01612617       0.37721617 </v>
   <v>       0.75686798       0.98699185       0.89403670 </v>
   <v>       0.75386123       0.48528054       0.38024500 </v>
   <v>       0.75631214       0.49308737       0.89110574 </v>
   <v>       0.50368996       0.50142174       0.00233004 </v>
   <v>       0.50194243       0.00242420       0.49734623 </v>
   <v>       0.50325644       0.50188437       0.49667524 </v>
   <v>       0.25595994       0.75370342       0.24985266 </v>
   <v>       0.00183829       0.50241828       0.49680208 </v>
   <v>       0.00313563       0.00169682       0.49623519 </v>
   <v>       0.50212272       0.00221684       0.00237604 </v>
   <v>       0.75378092       0.25271496       0.24984139 </v>
   <v>       0.75514495       0.24920057       0.99510689 </v>
   <v>       0.00189375       0.50198275       0.00682614 </v>
   <v>       0.49898926       0.49096184       0.24912479 </v>
   <v>       0.25122122       0.24484902       0.01299679 </v>
   <v>       0.97768307       0.03395672       0.74777978 </v>
   <v>       0.00437993       0.00159089       0.00677777 </v>
   <v>       0.25174995       0.74938399       0.99514976 </v>
   <v>       0.73334965       0.71510053       0.74866578 </v>
   <v>       0.25159543       0.24569051       0.49041147 </v>
   <v>       0.25342211       0.74946174       0.50420914 </v>
   <v>       0.75240915       0.24964870       0.50421007 </v>
   <v>       0.75325509       0.74481121       0.01332700 </v>
   <v>       0.75182420       0.74560784       0.48980320 </v>
   <v>       0.25916640       0.26951134       0.25116144 </v>
   <v>       0.23300600       0.21544071       0.74832775 </v>
   <v>       0.51552354       0.99618691       0.24920825 </v>
   <v>       0.23080381       0.71361003       0.75001961 </v>
   <v>       0.73136522       0.21334053       0.74990543 </v>
   <v>       0.75717012       0.77034657       0.25079250 </v>
   <v>       0.99687602       0.98795129       0.24986839 </v>
   <v>       0.01453489       0.49323720       0.25044150 </v>
   <v>       0.98571600       0.53481369       0.74764302 </v>
   <v>       0.48507623       0.03487011       0.75048559 </v>
   <v>       0.47700440       0.53407446       0.75057596 </v>
   <v>       0.01732328       0.02330311       0.13184606 </v>
   <v>      -0.00000805       0.97782567       0.63430875 </v>
   <v>       0.98782155       0.52343803       0.13254282 </v>
   <v>       0.01344984       0.47891182       0.63457897 </v>
   <v>       0.49265294       0.01943004       0.12659101 </v>
   <v>       0.51362675       0.97695166       0.63899094 </v>
   <v>       0.51332944       0.51743598       0.12601079 </v>
   <v>       0.50144016       0.47610706       0.63869771 </v>
   <v>       0.01585377       0.01958005       0.37279815 </v>
   <v>       0.00561259       0.97122796       0.85455168 </v>
   <v>       0.99006313       0.52221458       0.37293197 </v>
   <v>       0.01721083       0.47180774       0.85381212 </v>
   <v>       0.49331061       0.02077250       0.37425990 </v>
   <v>       0.51530091       0.97792410       0.86100939 </v>
   <v>       0.51472522       0.51879608       0.37429620 </v>
   <v>       0.50232162       0.47731993       0.86177769 </v>
   <v>       0.24997072       0.20481603       0.36166180 </v>
   <v>       0.26275263       0.27735432       0.85493562 </v>
   <v>       0.25753678       0.74596210       0.37762564 </v>
   <v>       0.26301679       0.77323514       0.85862840 </v>
   <v>       0.75038991       0.24633017       0.37746433 </v>
   <v>       0.76106813       0.27340755       0.85859851 </v>
   <v>       0.74447065       0.70568017       0.36126440 </v>
   <v>       0.76021142       0.77667168       0.85586064 </v>
   <v>       0.25373054       0.20496938       0.14134298 </v>
   <v>       0.25820698       0.27468004       0.63790146 </v>
   <v>       0.25747061       0.74651634       0.12478917 </v>
   <v>       0.26080523       0.77341334       0.63993541 </v>
   <v>       0.75301266       0.24609739       0.12478311 </v>
   <v>       0.76286909       0.27361247       0.64016174 </v>
   <v>       0.73912353       0.70511395       0.14181853 </v>
   <v>       0.75975243       0.77490179       0.63877639 </v>
   <v>       0.14342816       0.38615271       0.25269554 </v>
   <v>       0.40296087       0.35306063       0.25216156 </v>
   <v>       0.64800050       0.40023056       0.25027476 </v>
   <v>       0.88866432       0.36986105       0.25331287 </v>
   <v>       0.14813428       0.89448972       0.25223792 </v>
   <v>       0.39001378       0.87651983       0.25174840 </v>
   <v>       0.64835007       0.89421573       0.25254801 </v>
   <v>       0.90551905       0.84564649       0.25019330 </v>
   <v>       0.12662895       0.12437134       0.51155266 </v>
   <v>       0.37779041       0.12399328       0.51149859 </v>
   <v>       0.62725735       0.12363740       0.50991200 </v>
   <v>       0.87843464       0.12372816       0.50652358 </v>
   <v>       0.12628635       0.37384209       0.48514015 </v>
   <v>       0.37563660       0.37606537       0.48623165 </v>
   <v>       0.62445727       0.37484490       0.49970977 </v>
   <v>       0.87874532       0.37733807       0.49752005 </v>
   <v>       0.12786565       0.62358349       0.50723466 </v>
   <v>       0.37889230       0.62338586       0.50899830 </v>
   <v>       0.62665175       0.62417797       0.51249319 </v>
   <v>       0.87747609       0.62437611       0.51066097 </v>
   <v>       0.12512461       0.87465329       0.49807267 </v>
   <v>       0.37909174       0.87797542       0.49910930 </v>
   <v>       0.62640748       0.87380298       0.48732782 </v>
   <v>       0.87584395       0.87569882       0.48436084 </v>
   <v>       0.06311508       0.18000506       0.74861041 </v>
   <v>       0.31609363       0.06586523       0.74945352 </v>
   <v>       0.56066204       0.18596722       0.74927724 </v>
   <v>       0.80762382       0.06316430       0.74935204 </v>
   <v>       0.06086369       0.68642061       0.74918634 </v>
   <v>       0.30763052       0.56310806       0.74971014 </v>
   <v>       0.56251901       0.67959616       0.74915427 </v>
   <v>       0.81616901       0.56608084       0.74882372 </v>
   <v>       0.12927492       0.12561857       0.98906834 </v>
   <v>       0.37880742       0.12424315       0.98887173 </v>
   <v>       0.62774680       0.12363150       0.99153636 </v>
   <v>       0.87843083       0.12333405       0.99311234 </v>
   <v>       0.12928726       0.37252439       0.01638597 </v>
   <v>       0.37700415       0.37540048       0.01323803 </v>
   <v>       0.62551653       0.37466974       0.00064704 </v>
   <v>       0.87937878       0.37597777       0.00194692 </v>
   <v>       0.12897173       0.62320797       0.99380900 </v>
   <v>       0.37949669       0.62374825       0.99190154 </v>
   <v>       0.62663356       0.62434957       0.98802131 </v>
   <v>       0.87605935       0.62511111       0.99074962 </v>
   <v>       0.12565067       0.87330263       0.00225699 </v>
   <v>       0.37912624       0.87764934       0.00061414 </v>
   <v>       0.62587586       0.87350786       0.01259737 </v>
   <v>       0.87404878       0.87392222       0.01717542 </v>
   <v>       0.60983090       0.14616916       0.25063941 </v>
   <v>       0.87109930       0.11844795       0.25289164 </v>
   <v>       0.12274901       0.63938181       0.25236408 </v>
   <v>       0.38501105       0.62578790       0.25108683 </v>
  </varray>
 </structure>
</modeling>
