       N       E                     dE             d eps       ncg     rms          rms(c)
DAV:   1    -0.111913476515E+04   -0.11191E+04   -0.22772E-02 13104   0.349E-01    0.924E-03
RMM:   2    -0.111913476538E+04   -0.22548E-06   -0.40678E-06  5574   0.411E-03    0.135E-02
RMM:   3    -0.111913476547E+04   -0.94777E-07   -0.10151E-06  3524   0.265E-03    0.310E-03
RMM:   4    -0.111913476555E+04   -0.78537E-07   -0.32054E-07  2004   0.191E-03    0.154E-03
RMM:   5    -0.111913476558E+04   -0.33877E-07   -0.11824E-07  1479   0.169E-03    0.223E-03
RMM:   6    -0.111913476560E+04   -0.15498E-07   -0.18456E-08  1192   0.161E-03    0.169E-03
RMM:   7    -0.111913476561E+04   -0.54279E-08   -0.32802E-09  1110   0.161E-03    0.110E-03
RMM:   8    -0.111913476561E+04   -0.30414E-08   -0.27384E-09  1048   0.161E-03
   1 F= -.11191348E+04 E0= -.11191348E+04  d E =-.111913E+04  mag=    40.0000
       N       E                     dE             d eps       ncg     rms          rms(c)
DAV:   1    -0.111913485573E+04   -0.90129E-04   -0.51122E-01 12368   0.829E-01    0.304E-01
RMM:   2    -0.111913605800E+04   -0.12023E-02   -0.15796E-02 12301   0.165E-01    0.278E-01
RMM:   3    -0.111913599250E+04    0.65503E-04   -0.77645E-04 11381   0.500E-02    0.170E-01
RMM:   4    -0.111913588260E+04    0.10990E-03   -0.33403E-04 10313   0.210E-02    0.857E-02
RMM:   5    -0.111913585641E+04    0.26196E-04   -0.86552E-05  7843   0.140E-02    0.382E-02
RMM:   6    -0.111913585695E+04   -0.54351E-06   -0.19253E-05  7108   0.729E-03    0.251E-02
RMM:   7    -0.111913585642E+04    0.52758E-06   -0.76600E-06  6144   0.406E-03    0.136E-02
RMM:   8    -0.111913585551E+04    0.91305E-06   -0.44540E-06  5922   0.340E-03
   2 F= -.11191359E+04 E0= -.11191359E+04  d E =-.108990E-02  mag=    40.0000
       N       E                     dE             d eps       ncg     rms          rms(c)
DAV:   1    -0.111913587913E+04   -0.22714E-04   -0.19295E-02 13040   0.161E-01    0.590E-02
RMM:   2    -0.111913592436E+04   -0.45222E-04   -0.58293E-04 10895   0.322E-02    0.545E-02
RMM:   3    -0.111913592188E+04    0.24796E-05   -0.26101E-05  6684   0.102E-02    0.339E-02
RMM:   4    -0.111913591833E+04    0.35499E-05   -0.11534E-05  6443   0.474E-03    0.178E-02
RMM:   5    -0.111913591795E+04    0.37454E-06   -0.43077E-06  5403   0.318E-03    0.111E-02
RMM:   6    -0.111913591811E+04   -0.15405E-06   -0.66914E-07  3150   0.202E-03    0.383E-03
RMM:   7    -0.111913591818E+04   -0.68700E-07   -0.59719E-08  1527   0.160E-03    0.226E-03
RMM:   8    -0.111913591834E+04   -0.16385E-06   -0.20891E-08  1212   0.161E-03
   3 F= -.11191359E+04 E0= -.11191359E+04  d E =-.115273E-02  mag=    40.0000
       N       E                     dE             d eps       ncg     rms          rms(c)
DAV:   1    -0.111913552553E+04    0.39265E-03   -0.50775E-01 12504   0.832E-01    0.248E-01
RMM:   2    -0.111913695166E+04   -0.14261E-02   -0.13341E-02 12333   0.152E-01    0.168E-01
RMM:   3    -0.111913700770E+04   -0.56039E-04   -0.67803E-04 10847   0.484E-02    0.102E-01
RMM:   4    -0.111913695982E+04    0.47882E-04   -0.13850E-04  7331   0.157E-02    0.608E-02
RMM:   5    -0.111913695059E+04    0.92249E-05   -0.78278E-05  7147   0.117E-02    0.431E-02
RMM:   6    -0.111913695216E+04   -0.15684E-05   -0.23744E-05  6900   0.864E-03    0.242E-02
RMM:   7    -0.111913695322E+04   -0.10589E-05   -0.98732E-06  6481   0.415E-03    0.854E-03
RMM:   8    -0.111913695392E+04   -0.70565E-06   -0.51344E-06  5760   0.413E-03
   4 F= -.11191370E+04 E0= -.11191370E+04  d E =-.103558E-02  mag=    40.0000
       N       E                     dE             d eps       ncg     rms          rms(c)
DAV:   1    -0.111913678344E+04    0.16978E-03   -0.98357E-02 12352   0.366E-01    0.110E-01
RMM:   2    -0.111913706422E+04   -0.28078E-03   -0.26229E-03 12257   0.670E-02    0.745E-02
RMM:   3    -0.111913707189E+04   -0.76721E-05   -0.10734E-04  7180   0.212E-02    0.473E-02
RMM:   4    -0.111913706535E+04    0.65470E-05   -0.36933E-05  6961   0.856E-03    0.280E-02
RMM:   5    -0.111913706461E+04    0.74045E-06   -0.23191E-05  6563   0.706E-03    0.399E-02
RMM:   6    -0.111913706472E+04   -0.11659E-06   -0.10027E-05  5979   0.504E-03    0.750E-03
RMM:   7    -0.111913706514E+04   -0.41269E-06   -0.32307E-06  4781   0.286E-03    0.521E-03
RMM:   8    -0.111913706535E+04   -0.21125E-06   -0.19191E-06  3880   0.255E-03
   5 F= -.11191371E+04 E0= -.11191371E+04  d E =-.114701E-02  mag=    40.0000
       N       E                     dE             d eps       ncg     rms          rms(c)
DAV:   1    -0.111913694685E+04    0.11829E-03   -0.37483E-01 12592   0.717E-01    0.178E-01
RMM:   2    -0.111913791115E+04   -0.96430E-03   -0.96084E-03 12381   0.128E-01    0.123E-01
RMM:   3    -0.111913793578E+04   -0.24632E-04   -0.47786E-04  9884   0.419E-02    0.770E-02
RMM:   4    -0.111913791166E+04    0.24122E-04   -0.10385E-04  7157   0.135E-02    0.453E-02
RMM:   5    -0.111913790665E+04    0.50154E-05   -0.48997E-05  7036   0.983E-03    0.353E-02
RMM:   6    -0.111913790829E+04   -0.16486E-05   -0.18211E-05  6829   0.698E-03    0.161E-02
RMM:   7    -0.111913790930E+04   -0.10031E-05   -0.86509E-06  6195   0.409E-03    0.705E-03
RMM:   8    -0.111913790979E+04   -0.49469E-06   -0.48102E-06  5311   0.362E-03
   6 F= -.11191379E+04 E0= -.11191379E+04  d E =-.844443E-03  mag=    40.0000
       N       E                     dE             d eps       ncg     rms          rms(c)
DAV:   1    -0.111913700744E+04    0.90186E-03   -0.48963E-01 12544   0.819E-01    0.204E-01
RMM:   2    -0.111913826743E+04   -0.12600E-02   -0.12561E-02 12365   0.145E-01    0.141E-01
RMM:   3    -0.111913829997E+04   -0.32542E-04   -0.64246E-04 10706   0.478E-02    0.881E-02
RMM:   4    -0.111913826681E+04    0.33160E-04   -0.13193E-04  7285   0.150E-02    0.533E-02
RMM:   5    -0.111913825957E+04    0.72359E-05   -0.63701E-05  7124   0.108E-02    0.464E-02
RMM:   6    -0.111913826142E+04   -0.18457E-05   -0.23645E-05  6946   0.825E-03    0.190E-02
RMM:   7    -0.111913826272E+04   -0.13006E-05   -0.11574E-05  6563   0.447E-03    0.964E-03
RMM:   8    -0.111913826328E+04   -0.56186E-06   -0.60636E-06  5770   0.430E-03
   7 F= -.11191383E+04 E0= -.11191383E+04  d E =-.119793E-02  mag=    40.0000
       N       E                     dE             d eps       ncg     rms          rms(c)
DAV:   1    -0.111913810378E+04    0.15894E-03   -0.38585E-01 12656   0.722E-01    0.152E-01
RMM:   2    -0.111913902977E+04   -0.92598E-03   -0.95871E-03 12371   0.124E-01    0.992E-02
RMM:   3    -0.111913903799E+04   -0.82278E-05   -0.47782E-04  9626   0.422E-02    0.640E-02
RMM:   4    -0.111913901766E+04    0.20330E-04   -0.10602E-04  7134   0.133E-02    0.375E-02
RMM:   5    -0.111913901541E+04    0.22522E-05   -0.44206E-05  7010   0.935E-03    0.376E-02
RMM:   6    -0.111913901702E+04   -0.16081E-05   -0.17989E-05  6780   0.681E-03    0.122E-02
RMM:   7    -0.111913901815E+04   -0.11310E-05   -0.92870E-06  6053   0.412E-03    0.707E-03
RMM:   8    -0.111913901868E+04   -0.52885E-06   -0.50693E-06  5106   0.365E-03
   8 F= -.11191390E+04 E0= -.11191390E+04  d E =-.755399E-03  mag=    40.0000
       N       E                     dE             d eps       ncg     rms          rms(c)
DAV:   1    -0.111913691962E+04    0.20985E-02   -0.11186E+00 12608   0.123E+00    0.259E-01
RMM:   2    -0.111913959008E+04   -0.26705E-02   -0.27682E-02 12373   0.212E-01    0.169E-01
RMM:   3    -0.111913962731E+04   -0.37223E-04   -0.14819E-03 11969   0.720E-02    0.108E-01
RMM:   4    -0.111913956733E+04    0.59973E-04   -0.33499E-04  8918   0.212E-02    0.632E-02
RMM:   5    -0.111913955311E+04    0.14227E-04   -0.11055E-04  7282   0.147E-02    0.548E-02
RMM:   6    -0.111913955618E+04   -0.30718E-05   -0.36764E-05  7047   0.103E-02    0.217E-02
RMM:   7    -0.111913955845E+04   -0.22738E-05   -0.19172E-05  6827   0.578E-03    0.109E-02
RMM:   8    -0.111913955951E+04   -0.10604E-05   -0.10905E-05  6532   0.557E-03
   9 F= -.11191396E+04 E0= -.11191396E+04  d E =-.129623E-02  mag=    40.0000
       N       E                     dE             d eps       ncg     rms          rms(c)
DAV:   1    -0.111913887792E+04    0.68053E-03   -0.65799E-01 12720   0.936E-01    0.202E-01
RMM:   2    -0.111914040326E+04   -0.15253E-02   -0.16384E-02 12384   0.162E-01    0.138E-01
RMM:   3    -0.111914041283E+04   -0.95643E-05   -0.87171E-04 11279   0.548E-02    0.850E-02
RMM:   4    -0.111914037107E+04    0.41755E-04   -0.18421E-04  7606   0.169E-02    0.564E-02
RMM:   5    -0.111914036086E+04    0.10215E-04   -0.61097E-05  7128   0.111E-02    0.446E-02
RMM:   6    -0.111914036278E+04   -0.19195E-05   -0.26763E-05  7044   0.769E-03    0.140E-02
RMM:   7    -0.111914036362E+04   -0.83898E-06   -0.13350E-05  6822   0.543E-03    0.127E-02
RMM:   8    -0.111914036388E+04   -0.26629E-06   -0.79466E-06  6023   0.435E-03
  10 F= -.11191404E+04 E0= -.11191404E+04  d E =-.804368E-03  mag=    40.0000
       N       E                     dE             d eps       ncg     rms          rms(c)
DAV:   1    -0.111913992447E+04    0.43915E-03   -0.25706E-01 12608   0.585E-01    0.127E-01
RMM:   2    -0.111914052369E+04   -0.59922E-03   -0.64387E-03 12357   0.101E-01    0.871E-02
RMM:   3    -0.111914052191E+04    0.17806E-05   -0.30033E-04  8620   0.337E-02    0.537E-02
RMM:   4    -0.111914050707E+04    0.14840E-04   -0.78997E-05  7099   0.118E-02    0.372E-02
RMM:   5    -0.111914050422E+04    0.28503E-05   -0.28081E-05  6947   0.805E-03    0.357E-02
RMM:   6    -0.111914050462E+04   -0.40459E-06   -0.16381E-05  6681   0.561E-03    0.842E-03
RMM:   7    -0.111914050510E+04   -0.47943E-06   -0.71282E-06  5885   0.420E-03    0.911E-03
RMM:   8    -0.111914050526E+04   -0.15971E-06   -0.43942E-06  4785   0.318E-03
  11 F= -.11191405E+04 E0= -.11191405E+04  d E =-.945746E-03  mag=    40.0000
       N       E                     dE             d eps       ncg     rms          rms(c)
DAV:   1    -0.111913969806E+04    0.80703E-03   -0.62993E-01 12632   0.914E-01    0.193E-01
RMM:   2    -0.111914121585E+04   -0.15178E-02   -0.15474E-02 12379   0.157E-01    0.126E-01
RMM:   3    -0.111914123776E+04   -0.21906E-04   -0.79781E-04 11017   0.530E-02    0.811E-02
RMM:   4    -0.111914120185E+04    0.35908E-04   -0.16659E-04  7479   0.161E-02    0.522E-02
RMM:   5    -0.111914119732E+04    0.45341E-05   -0.60904E-05  7120   0.112E-02    0.543E-02
RMM:   6    -0.111914119973E+04   -0.24138E-05   -0.24939E-05  6927   0.789E-03    0.139E-02
RMM:   7    -0.111914120120E+04   -0.14704E-05   -0.12262E-05  6552   0.491E-03    0.116E-02
RMM:   8    -0.111914120187E+04   -0.67003E-06   -0.69259E-06  5672   0.424E-03
  12 F= -.11191412E+04 E0= -.11191412E+04  d E =-.696613E-03  mag=    40.0000
