       N       E                     dE             d eps       ncg     rms          rms(c)
DAV:   1    -0.105448874078E+04   -0.10545E+04   -0.24012E-03 12824   0.111E-01    0.400E-02
RMM:   2    -0.105448874247E+04   -0.16911E-05   -0.16676E-05  6695   0.652E-03    0.941E-02
RMM:   3    -0.105448874115E+04    0.13177E-05   -0.62204E-06  6139   0.476E-03    0.159E-02
RMM:   4    -0.105448874145E+04   -0.30547E-06   -0.23421E-06  3669   0.235E-03    0.719E-03
RMM:   5    -0.105448874163E+04   -0.17766E-06   -0.11097E-06  3209   0.233E-03    0.417E-03
RMM:   6    -0.105448874192E+04   -0.28870E-06   -0.56842E-07  2221   0.204E-03    0.557E-03
RMM:   7    -0.105448874213E+04   -0.20731E-06   -0.52802E-07  2303   0.202E-03    0.273E-03
RMM:   8    -0.105448874260E+04   -0.47019E-06   -0.63441E-07  2211   0.210E-03
   1 F= -.10544887E+04 E0= -.10544799E+04  d E =-.105449E+04  mag=    78.0000
       N       E                     dE             d eps       ncg     rms          rms(c)
DAV:   1    -0.105448733578E+04    0.14064E-02   -0.65935E-01 12480   0.943E-01    0.461E-01
RMM:   2    -0.105448986816E+04   -0.25324E-02   -0.22571E-02 12356   0.208E-01    0.453E-01
RMM:   3    -0.105448995322E+04   -0.85057E-04   -0.14373E-03 12450   0.630E-02    0.318E-01
RMM:   4    -0.105448985192E+04    0.10129E-03   -0.20127E-04  8422   0.210E-02    0.245E-01
RMM:   5    -0.105448976098E+04    0.90947E-04   -0.40712E-04 10310   0.231E-02    0.167E-01
RMM:   6    -0.105448973822E+04    0.22761E-04   -0.90154E-05  7494   0.152E-02    0.895E-02
RMM:   7    -0.105448973466E+04    0.35558E-05   -0.26466E-05  7193   0.911E-03    0.272E-02
RMM:   8    -0.105448973351E+04    0.11510E-05   -0.88939E-06  6604   0.459E-03
   2 F= -.10544897E+04 E0= -.10544808E+04  d E =-.990910E-03  mag=    78.0000
       N       E                     dE             d eps       ncg     rms          rms(c)
DAV:   1    -0.105448983307E+04   -0.98411E-04   -0.88604E-02 12544   0.346E-01    0.167E-01
RMM:   2    -0.105449016736E+04   -0.33429E-03   -0.30045E-03 12236   0.761E-02    0.176E-01
RMM:   3    -0.105449017160E+04   -0.42368E-05   -0.14317E-04  8039   0.236E-02    0.121E-01
RMM:   4    -0.105449016165E+04    0.99515E-05   -0.40736E-05  6666   0.111E-02    0.808E-02
RMM:   5    -0.105449014855E+04    0.13093E-04   -0.59379E-05  6522   0.926E-03    0.695E-02
RMM:   6    -0.105449014650E+04    0.20505E-05   -0.15892E-05  5905   0.612E-03    0.195E-02
RMM:   7    -0.105449014668E+04   -0.17848E-06   -0.37795E-06  5084   0.342E-03    0.204E-02
RMM:   8    -0.105449014669E+04   -0.12384E-07   -0.13022E-06  3688   0.236E-03
   3 F= -.10544901E+04 E0= -.10544813E+04  d E =-.140409E-02  mag=    78.0000
       N       E                     dE             d eps       ncg     rms          rms(c)
DAV:   1    -0.105448980450E+04    0.34218E-03   -0.32653E-01 12688   0.682E-01    0.247E-01
RMM:   2    -0.105449092767E+04   -0.11232E-02   -0.93317E-03 12402   0.134E-01    0.177E-01
RMM:   3    -0.105449099129E+04   -0.63618E-04   -0.48267E-04 10116   0.414E-02    0.104E-01
RMM:   4    -0.105449095961E+04    0.31673E-04   -0.96793E-05  7343   0.144E-02    0.656E-02
RMM:   5    -0.105449094782E+04    0.11794E-04   -0.66049E-05  7171   0.111E-02    0.345E-02
RMM:   6    -0.105449094937E+04   -0.15503E-05   -0.16659E-05  7031   0.700E-03    0.229E-02
RMM:   7    -0.105449094963E+04   -0.26428E-06   -0.69423E-06  6454   0.425E-03    0.103E-02
RMM:   8    -0.105449094962E+04    0.11845E-07   -0.32387E-06  5084   0.314E-03
   4 F= -.10544909E+04 E0= -.10544821E+04  d E =-.802929E-03  mag=    78.0000
       N       E                     dE             d eps       ncg     rms          rms(c)
DAV:   1    -0.105449093819E+04    0.11446E-04   -0.85930E-03 12768   0.111E-01    0.407E-02
RMM:   2    -0.105449096582E+04   -0.27631E-04   -0.22617E-04  8076   0.218E-02    0.333E-02
RMM:   3    -0.105449096988E+04   -0.40564E-05   -0.24343E-05  6572   0.100E-02    0.191E-02
RMM:   4    -0.105449096977E+04    0.10245E-06   -0.71940E-06  5953   0.407E-03    0.161E-02
RMM:   5    -0.105449096929E+04    0.48368E-06   -0.31007E-06  5143   0.322E-03    0.667E-03
RMM:   6    -0.105449096924E+04    0.45911E-07   -0.90363E-07  2569   0.203E-03    0.566E-03
RMM:   7    -0.105449096925E+04   -0.67084E-08   -0.29806E-07  2099   0.197E-03    0.242E-03
RMM:   8    -0.105449096925E+04   -0.21537E-08   -0.19067E-08  1417   0.175E-03
   5 F= -.10544910E+04 E0= -.10544821E+04  d E =-.822559E-03  mag=    78.0000
       N       E                     dE             d eps       ncg     rms          rms(c)
DAV:   1    -0.105449074678E+04    0.22247E-03   -0.24767E-01 12816   0.595E-01    0.205E-01
RMM:   2    -0.105449156588E+04   -0.81909E-03   -0.66760E-03 12443   0.111E-01    0.141E-01
RMM:   3    -0.105449161943E+04   -0.53556E-04   -0.33232E-04  9173   0.355E-02    0.938E-02
RMM:   4    -0.105449161031E+04    0.91217E-05   -0.66108E-05  7132   0.126E-02    0.589E-02
RMM:   5    -0.105449159898E+04    0.11335E-04   -0.42762E-05  7043   0.974E-03    0.354E-02
RMM:   6    -0.105449160034E+04   -0.13678E-05   -0.22581E-05  6933   0.700E-03    0.228E-02
RMM:   7    -0.105449160167E+04   -0.13244E-05   -0.79529E-06  6476   0.515E-03    0.181E-02
RMM:   8    -0.105449160225E+04   -0.58656E-06   -0.40711E-06  5158   0.308E-03
   6 F= -.10544916E+04 E0= -.10544828E+04  d E =-.633002E-03  mag=    78.0000
       N       E                     dE             d eps       ncg     rms          rms(c)
DAV:   1    -0.105449097493E+04    0.62674E-03   -0.23924E-01 12656   0.585E-01    0.202E-01
RMM:   2    -0.105449177008E+04   -0.79515E-03   -0.64710E-03 12448   0.109E-01    0.138E-01
RMM:   3    -0.105449182115E+04   -0.51075E-04   -0.31600E-04  9032   0.351E-02    0.906E-02
RMM:   4    -0.105449181302E+04    0.81353E-05   -0.67037E-05  7176   0.126E-02    0.582E-02
RMM:   5    -0.105449180313E+04    0.98890E-05   -0.42365E-05  7096   0.963E-03    0.361E-02
RMM:   6    -0.105449180477E+04   -0.16432E-05   -0.22528E-05  6992   0.707E-03    0.237E-02
RMM:   7    -0.105449180610E+04   -0.13250E-05   -0.83419E-06  6600   0.519E-03    0.186E-02
RMM:   8    -0.105449180668E+04   -0.58203E-06   -0.43775E-06  5284   0.320E-03
   7 F= -.10544918E+04 E0= -.10544830E+04  d E =-.837427E-03  mag=    78.0000
       N       E                     dE             d eps       ncg     rms          rms(c)
DAV:   1    -0.105449106865E+04    0.73745E-03   -0.35855E-01 12616   0.711E-01    0.237E-01
RMM:   2    -0.105449226718E+04   -0.11985E-02   -0.97588E-03 12419   0.132E-01    0.173E-01
RMM:   3    -0.105449234472E+04   -0.77538E-04   -0.51191E-04 10099   0.431E-02    0.124E-01
RMM:   4    -0.105449233186E+04    0.12864E-04   -0.84984E-05  7256   0.141E-02    0.800E-02
RMM:   5    -0.105449231269E+04    0.19169E-04   -0.61387E-05  7139   0.115E-02    0.433E-02
RMM:   6    -0.105449231326E+04   -0.57128E-06   -0.33187E-05  6964   0.821E-03    0.266E-02
RMM:   7    -0.105449231460E+04   -0.13374E-05   -0.10788E-05  6629   0.590E-03    0.184E-02
RMM:   8    -0.105449231487E+04   -0.27257E-06   -0.56275E-06  5528   0.351E-03
   8 F= -.10544923E+04 E0= -.10544835E+04  d E =-.508191E-03  mag=    78.0000
       N       E                     dE             d eps       ncg     rms          rms(c)
DAV:   1    -0.105449228276E+04    0.31842E-04   -0.12244E-02 12800   0.131E-01    0.443E-02
RMM:   2    -0.105449232197E+04   -0.39214E-04   -0.31483E-04  8562   0.247E-02    0.325E-02
RMM:   3    -0.105449232742E+04   -0.54530E-05   -0.29336E-05  6660   0.111E-02    0.176E-02
RMM:   4    -0.105449232766E+04   -0.23779E-06   -0.90509E-06  6203   0.437E-03    0.159E-02
RMM:   5    -0.105449232757E+04    0.89072E-07   -0.33384E-06  4932   0.344E-03    0.171E-02
RMM:   6    -0.105449232753E+04    0.39450E-07   -0.16543E-06  2989   0.221E-03    0.404E-03
RMM:   7    -0.105449232764E+04   -0.10677E-06   -0.88670E-07  2640   0.226E-03    0.373E-03
RMM:   8    -0.105449232766E+04   -0.22803E-07   -0.14856E-07  1604   0.186E-03
   9 F= -.10544923E+04 E0= -.10544835E+04  d E =-.520983E-03  mag=    78.0000
       N       E                     dE             d eps       ncg     rms          rms(c)
DAV:   1    -0.105449149446E+04    0.83318E-03   -0.40477E-01 12480   0.749E-01    0.234E-01
RMM:   2    -0.105449279231E+04   -0.12978E-02   -0.10646E-02 12591   0.137E-01    0.143E-01
RMM:   3    -0.105449286844E+04   -0.76129E-04   -0.51587E-04  9871   0.427E-02    0.796E-02
RMM:   4    -0.105449284578E+04    0.22665E-04   -0.95680E-05  7240   0.145E-02    0.757E-02
RMM:   5    -0.105449283717E+04    0.86107E-05   -0.40380E-05  7074   0.101E-02    0.434E-02
RMM:   6    -0.105449283688E+04    0.28971E-06   -0.28316E-05  6955   0.747E-03    0.178E-02
RMM:   7    -0.105449283748E+04   -0.60504E-06   -0.93568E-06  6539   0.528E-03    0.123E-02
RMM:   8    -0.105449283777E+04   -0.29185E-06   -0.47418E-06  5140   0.321E-03
  10 F= -.10544928E+04 E0= -.10544841E+04  d E =-.510111E-03  mag=    78.0000
       N       E                     dE             d eps       ncg     rms          rms(c)
DAV:   1    -0.105449250351E+04    0.33397E-03   -0.12614E-01 12496   0.418E-01    0.131E-01
RMM:   2    -0.105449291158E+04   -0.40806E-03   -0.33529E-03 12534   0.760E-02    0.808E-02
RMM:   3    -0.105449293273E+04   -0.21156E-04   -0.14246E-04  7725   0.241E-02    0.460E-02
RMM:   4    -0.105449292805E+04    0.46853E-05   -0.37157E-05  6998   0.937E-03    0.464E-02
RMM:   5    -0.105449292502E+04    0.30323E-05   -0.16095E-05  6658   0.631E-03    0.214E-02
RMM:   6    -0.105449292477E+04    0.24193E-06   -0.11153E-05  6544   0.469E-03    0.108E-02
RMM:   7    -0.105449292502E+04   -0.24262E-06   -0.37458E-06  5224   0.347E-03    0.675E-03
RMM:   8    -0.105449292506E+04   -0.42040E-07   -0.14425E-06  3416   0.235E-03
  11 F= -.10544929E+04 E0= -.10544841E+04  d E =-.597396E-03  mag=    78.0000
       N       E                     dE             d eps       ncg     rms          rms(c)
DAV:   1    -0.105449207895E+04    0.84607E-03   -0.51126E-01 12800   0.834E-01    0.226E-01
RMM:   2    -0.105449346419E+04   -0.13852E-02   -0.13581E-02 12586   0.151E-01    0.157E-01
RMM:   3    -0.105449350143E+04   -0.37238E-04   -0.68684E-04 10502   0.489E-02    0.119E-01
RMM:   4    -0.105449348518E+04    0.16250E-04   -0.10279E-04  7307   0.154E-02    0.727E-02
RMM:   5    -0.105449346461E+04    0.20569E-04   -0.62697E-05  7133   0.118E-02    0.421E-02
RMM:   6    -0.105449346497E+04   -0.36208E-06   -0.38199E-05  7027   0.907E-03    0.308E-02
RMM:   7    -0.105449346789E+04   -0.29148E-05   -0.14294E-05  6923   0.667E-03    0.185E-02
RMM:   8    -0.105449346936E+04   -0.14747E-05   -0.71523E-06  5895   0.411E-03
  12 F= -.10544935E+04 E0= -.10544847E+04  d E =-.544302E-03  mag=    78.0000
       N       E                     dE             d eps       ncg     rms          rms(c)
DAV:   1    -0.105449229698E+04    0.11709E-02   -0.49404E-01 12512   0.820E-01    0.222E-01
RMM:   2    -0.105449364653E+04   -0.13496E-02   -0.13158E-02 12575   0.148E-01    0.158E-01
RMM:   3    -0.105449368411E+04   -0.37576E-04   -0.66190E-04 10450   0.489E-02    0.120E-01
RMM:   4    -0.105449366962E+04    0.14488E-04   -0.10168E-04  7332   0.152E-02    0.711E-02
RMM:   5    -0.105449365069E+04    0.18929E-04   -0.59913E-05  7158   0.113E-02    0.420E-02
RMM:   6    -0.105449365109E+04   -0.39380E-06   -0.37084E-05  7073   0.885E-03    0.308E-02
RMM:   7    -0.105449365387E+04   -0.27802E-05   -0.13574E-05  6957   0.638E-03    0.183E-02
RMM:   8    -0.105449365515E+04   -0.12775E-05   -0.66405E-06  5984   0.399E-03
  13 F= -.10544937E+04 E0= -.10544849E+04  d E =-.730088E-03  mag=    78.0000
       N       E                     dE             d eps       ncg     rms          rms(c)
DAV:   1    -0.105449345240E+04    0.20147E-03   -0.22677E-01 12376   0.549E-01    0.133E-01
RMM:   2    -0.105449407022E+04   -0.61781E-03   -0.58812E-03 12601   0.970E-02    0.942E-02
RMM:   3    -0.105449408397E+04   -0.13757E-04   -0.25865E-04  8311   0.315E-02    0.656E-02
RMM:   4    -0.105449407999E+04    0.39781E-05   -0.50193E-05  7056   0.110E-02    0.449E-02
RMM:   5    -0.105449407261E+04    0.73871E-05   -0.25571E-05  6913   0.756E-03    0.255E-02
RMM:   6    -0.105449407246E+04    0.14264E-06   -0.17950E-05  6609   0.577E-03    0.178E-02
RMM:   7    -0.105449407330E+04   -0.83121E-06   -0.57941E-06  5623   0.425E-03    0.945E-03
RMM:   8    -0.105449407349E+04   -0.19019E-06   -0.26379E-06  4214   0.273E-03
  14 F= -.10544941E+04 E0= -.10544853E+04  d E =-.418340E-03  mag=    78.0000
       N       E                     dE             d eps       ncg     rms          rms(c)
DAV:   1    -0.105448915819E+04    0.49151E-02   -0.20404E+00 12672   0.165E+00    0.398E-01
RMM:   2    -0.105449466796E+04   -0.55098E-02   -0.52455E-02 12681   0.292E-01    0.273E-01
RMM:   3    -0.105449483703E+04   -0.16907E-03   -0.26715E-03 12394   0.927E-02    0.185E-01
RMM:   4    -0.105449477575E+04    0.61280E-04   -0.40132E-04  9481   0.260E-02    0.135E-01
RMM:   5    -0.105449469565E+04    0.80103E-04   -0.16208E-04  7553   0.171E-02    0.665E-02
RMM:   6    -0.105449469257E+04    0.30804E-05   -0.11743E-04  7281   0.141E-02    0.323E-02
RMM:   7    -0.105449469639E+04   -0.38239E-05   -0.28914E-05  7049   0.948E-03    0.175E-02
RMM:   8    -0.105449469732E+04   -0.92950E-06   -0.15127E-05  6622   0.537E-03
  15 F= -.10544947E+04 E0= -.10544859E+04  d E =-.104218E-02  mag=    78.0000
       N       E                     dE             d eps       ncg     rms          rms(c)
DAV:   1    -0.105449436023E+04    0.33616E-03   -0.29490E-01 12624   0.622E-01    0.172E-01
RMM:   2    -0.105449517672E+04   -0.81649E-03   -0.78216E-03 12738   0.113E-01    0.111E-01
RMM:   3    -0.105449519416E+04   -0.17446E-04   -0.35294E-04  9127   0.346E-02    0.615E-02
RMM:   4    -0.105449517748E+04    0.16678E-04   -0.74780E-05  7220   0.126E-02    0.388E-02
RMM:   5    -0.105449517129E+04    0.61915E-05   -0.37431E-05  7089   0.882E-03    0.222E-02
RMM:   6    -0.105449517212E+04   -0.83125E-06   -0.14106E-05  6815   0.586E-03    0.123E-02
RMM:   7    -0.105449517246E+04   -0.33472E-06   -0.67694E-06  5973   0.409E-03    0.671E-03
RMM:   8    -0.105449517229E+04    0.17077E-06   -0.37944E-06  4935   0.318E-03
  16 F= -.10544952E+04 E0= -.10544864E+04  d E =-.474965E-03  mag=    78.0000
