<?xml version="1.0" encoding="ISO-8859-1"?>
<modeling>
 <generator>
  <i name="program" type="string">vasp </i>
  <i name="version" type="string">5.4.1  </i>
  <i name="subversion" type="string">05Feb16 (build Jan 25 2017 20:16:33) complex                          parallel </i>
  <i name="platform" type="string">BWXE6 </i>
  <i name="date" type="string">2019 07 04 </i>
  <i name="time" type="string">06:59:21 </i>
 </generator>
 <incar>
  <i type="string" name="SYSTEM"> STF</i>
  <i type="string" name="PREC">normal</i>
  <i type="string" name="ALGO"> Fast</i>
  <i type="int" name="ISPIN">     2</i>
  <i type="int" name="NELM">    40</i>
  <i type="int" name="NELMIN">     8</i>
  <i type="int" name="IBRION">     2</i>
  <i name="EDIFF">      0.00010000</i>
  <i name="EDIFFG">     -0.03000000</i>
  <i type="int" name="NSW">    30</i>
  <i type="int" name="ISIF">     3</i>
  <i name="ENCUT">    520.00000000</i>
  <i type="int" name="NBANDS">   768</i>
  <v name="MAGMOM">      0.60000000      0.60000000      0.60000000      0.60000000      0.60000000      0.60000000      0.60000000      0.60000000      0.60000000      0.60000000      0.60000000      0.60000000      0.60000000      0.60000000      0.60000000      0.60000000      0.60000000      0.60000000      0.60000000      0.60000000
      0.60000000      0.60000000      0.60000000      0.60000000      0.60000000      0.60000000      0.60000000      0.60000000      0.60000000      0.60000000      0.60000000      0.60000000      0.60000000      0.60000000      0.60000000      0.60000000      0.60000000      0.60000000      0.60000000      0.60000000
      0.60000000      0.60000000      0.60000000      0.60000000      0.60000000      0.60000000      0.60000000      0.60000000      5.00000000      5.00000000      5.00000000      5.00000000      5.00000000      5.00000000      5.00000000      5.00000000      5.00000000      5.00000000      5.00000000      5.00000000
      5.00000000      5.00000000      5.00000000      5.00000000      0.60000000      0.60000000      0.60000000      0.60000000      0.60000000      0.60000000      0.60000000      0.60000000      0.60000000      0.60000000      0.60000000      0.60000000      0.60000000      0.60000000      0.60000000      0.60000000
      0.60000000      0.60000000      0.60000000      0.60000000      0.60000000      0.60000000      0.60000000      0.60000000      0.60000000      0.60000000      0.60000000      0.60000000      0.60000000      0.60000000      0.60000000      0.60000000      0.60000000      0.60000000      0.60000000      0.60000000
      0.60000000      0.60000000      0.60000000      0.60000000      0.60000000      0.60000000      0.60000000      0.60000000      0.60000000      0.60000000      0.60000000      0.60000000      0.60000000      0.60000000      0.60000000      0.60000000      0.60000000      0.60000000      0.60000000      0.60000000
      0.60000000      0.60000000      0.60000000      0.60000000      0.60000000      0.60000000      0.60000000      0.60000000      0.60000000      0.60000000      0.60000000      0.60000000      0.60000000      0.60000000      0.60000000      0.60000000      0.60000000      0.60000000      0.60000000      0.60000000
      0.60000000      0.60000000      0.60000000      0.60000000      0.60000000      0.60000000      0.60000000      0.60000000      0.60000000      0.60000000      0.60000000      0.60000000</v>
  <i type="string" name="LREAL"> Auto</i>
  <i type="int" name="ISMEAR">     0</i>
  <i name="SIGMA">      0.05000000</i>
  <i type="int" name="LMAXMIX">     4</i>
  <v type="int" name="KPOINT_BSE">    -1     0     0     0</v>
  <i type="int" name="NELM">    40</i>
  <i type="logical" name="LDAU"> T  </i>
  <v type="int" name="LDAUTYPE">     2</v>
  <v type="int" name="LDAUL">     0     2     2     0</v>
  <v name="LDAUU">      0.00000000      3.00000000      5.00000000      0.00000000</v>
  <v name="LDAUJ">      0.00000000      0.00000000      0.00000000      0.00000000</v>
  <i type="int" name="LDAUPRINT">     1</i>
 </incar>
 <kpoints>
  <generation param="Monkhorst-Pack">
   <v type="int" name="divisions">       2        2        2 </v>
   <v name="usershift">      0.00000000       0.00000000       0.00000000 </v>
   <v name="genvec1">      0.50000000       0.00000000       0.00000000 </v>
   <v name="genvec2">      0.00000000       0.50000000       0.00000000 </v>
   <v name="genvec3">      0.00000000       0.00000000       0.50000000 </v>
   <v name="shift">      0.50000000       0.50000000       0.50000000 </v>
  </generation>
  <varray name="kpointlist" >
   <v>       0.25000000       0.25000000       0.25000000 </v>
   <v>      -0.25000000       0.25000000       0.25000000 </v>
   <v>       0.25000000      -0.25000000       0.25000000 </v>
   <v>      -0.25000000      -0.25000000       0.25000000 </v>
  </varray>
  <varray name="weights" >
   <v>       0.25000000 </v>
   <v>       0.25000000 </v>
   <v>       0.25000000 </v>
   <v>       0.25000000 </v>
  </varray>
 </kpoints>
 <parameters>
  <separator name="general" >
   <i type="string" name="SYSTEM">STF</i>
   <i type="logical" name="LCOMPAT"> F  </i>
  </separator>
  <separator name="electronic" >
   <i type="string" name="PREC">normal</i>
   <i name="ENMAX">    520.00000000</i>
   <i name="ENAUG">    605.39200000</i>
   <i name="EDIFF">      0.00010000</i>
   <i type="int" name="IALGO">    68</i>
   <i type="int" name="IWAVPR">    11</i>
   <i type="int" name="NBANDS">   768</i>
   <i name="NELECT">   1040.00000000</i>
   <i type="int" name="TURBO">     0</i>
   <i type="int" name="IRESTART">     0</i>
   <i type="int" name="NREBOOT">     0</i>
   <i type="int" name="NMIN">     0</i>
   <i name="EREF">      0.00000000</i>
   <separator name="electronic smearing" >
    <i type="int" name="ISMEAR">     0</i>
    <i name="SIGMA">      0.05000000</i>
    <i name="KSPACING">      0.50000000</i>
    <i type="logical" name="KGAMMA"> T  </i>
   </separator>
   <separator name="electronic projectors" >
    <i type="logical" name="LREAL"> T  </i>
    <v name="ROPT">     -0.00050000     -0.00050000     -0.00050000     -0.00050000</v>
    <i type="int" name="LMAXPAW">  -100</i>
    <i type="int" name="LMAXMIX">     4</i>
    <i type="logical" name="NLSPLINE"> F  </i>
   </separator>
   <separator name="electronic startup" >
    <i type="int" name="ISTART">     1</i>
    <i type="int" name="ICHARG">     0</i>
    <i type="int" name="INIWAV">     1</i>
   </separator>
   <separator name="electronic spin" >
    <i type="int" name="ISPIN">     2</i>
    <i type="logical" name="LNONCOLLINEAR"> F  </i>
    <v name="MAGMOM">      0.60000000      0.60000000      0.60000000      0.60000000      0.60000000      0.60000000      0.60000000      0.60000000      0.60000000      0.60000000      0.60000000      0.60000000      0.60000000      0.60000000      0.60000000      0.60000000      0.60000000      0.60000000      0.60000000      0.60000000
      0.60000000      0.60000000      0.60000000      0.60000000      0.60000000      0.60000000      0.60000000      0.60000000      0.60000000      0.60000000      0.60000000      0.60000000      0.60000000      0.60000000      0.60000000      0.60000000      0.60000000      0.60000000      0.60000000      0.60000000
      0.60000000      0.60000000      0.60000000      0.60000000      0.60000000      0.60000000      0.60000000      0.60000000      5.00000000      5.00000000      5.00000000      5.00000000      5.00000000      5.00000000      5.00000000      5.00000000      5.00000000      5.00000000      5.00000000      5.00000000
      5.00000000      5.00000000      5.00000000      5.00000000      0.60000000      0.60000000      0.60000000      0.60000000      0.60000000      0.60000000      0.60000000      0.60000000      0.60000000      0.60000000      0.60000000      0.60000000      0.60000000      0.60000000      0.60000000      0.60000000
      0.60000000      0.60000000      0.60000000      0.60000000      0.60000000      0.60000000      0.60000000      0.60000000      0.60000000      0.60000000      0.60000000      0.60000000      0.60000000      0.60000000      0.60000000      0.60000000      0.60000000      0.60000000      0.60000000      0.60000000
      0.60000000      0.60000000      0.60000000      0.60000000      0.60000000      0.60000000      0.60000000      0.60000000      0.60000000      0.60000000      0.60000000      0.60000000      0.60000000      0.60000000      0.60000000      0.60000000      0.60000000      0.60000000      0.60000000      0.60000000
      0.60000000      0.60000000      0.60000000      0.60000000      0.60000000      0.60000000      0.60000000      0.60000000      0.60000000      0.60000000      0.60000000      0.60000000      0.60000000      0.60000000      0.60000000      0.60000000      0.60000000      0.60000000      0.60000000      0.60000000
      0.60000000      0.60000000      0.60000000      0.60000000      0.60000000      0.60000000      0.60000000      0.60000000      0.60000000      0.60000000      0.60000000      0.60000000</v>
    <i name="NUPDOWN">     -1.00000000</i>
    <i type="logical" name="LSORBIT"> F  </i>
    <v name="SAXIS">      0.00000000      0.00000000      1.00000000</v>
    <i type="logical" name="LSPIRAL"> F  </i>
    <v name="QSPIRAL">      0.00000000      0.00000000      0.00000000</v>
    <i type="logical" name="LZEROZ"> F  </i>
   </separator>
   <separator name="electronic exchange-correlation" >
    <i type="logical" name="LASPH"> F  </i>
    <i type="logical" name="LMETAGGA"> F  </i>
   </separator>
   <separator name="electronic convergence" >
    <i type="int" name="NELM">    40</i>
    <i type="int" name="NELMDL">     0</i>
    <i type="int" name="NELMIN">     8</i>
    <i name="ENINI">    520.00000000</i>
    <separator name="electronic convergence detail" >
     <i type="logical" name="LDIAG"> T  </i>
     <i type="logical" name="LSUBROT"> F  </i>
     <i name="WEIMIN">      0.00100000</i>
     <i name="EBREAK">      0.00000003</i>
     <i name="DEPER">      0.30000000</i>
     <i type="int" name="NRMM">     4</i>
     <i name="TIME">      0.40000000</i>
    </separator>
   </separator>
   <separator name="electronic mixer" >
    <i name="AMIX">      0.40000000</i>
    <i name="BMIX">      1.00000000</i>
    <i name="AMIN">      0.10000000</i>
    <i name="AMIX_MAG">      1.60000000</i>
    <i name="BMIX_MAG">      1.00000000</i>
    <separator name="electronic mixer details" >
     <i type="int" name="IMIX">     4</i>
     <i type="logical" name="MIXFIRST"> F  </i>
     <i type="int" name="MAXMIX">   -45</i>
     <i name="WC">    100.00000000</i>
     <i type="int" name="INIMIX">     1</i>
     <i type="int" name="MIXPRE">     1</i>
     <i type="int" name="MREMOVE">     5</i>
    </separator>
   </separator>
   <separator name="electronic dipolcorrection" >
    <i type="logical" name="LDIPOL"> F  </i>
    <i type="logical" name="LMONO"> F  </i>
    <i type="int" name="IDIPOL">     0</i>
    <i name="EPSILON">      1.00000000</i>
    <v name="DIPOL">   -100.00000000   -100.00000000   -100.00000000</v>
    <i name="EFIELD">      0.00000000</i>
   </separator>
  </separator>
  <separator name="grids" >
   <i type="int" name="NGX">    64</i>
   <i type="int" name="NGY">    64</i>
   <i type="int" name="NGZ">    90</i>
   <i type="int" name="NGXF">   128</i>
   <i type="int" name="NGYF">   128</i>
   <i type="int" name="NGZF">   180</i>
   <i type="logical" name="ADDGRID"> F  </i>
  </separator>
  <separator name="ionic" >
   <i type="int" name="NSW">    30</i>
   <i type="int" name="IBRION">     2</i>
   <i type="int" name="ISIF">     3</i>
   <i name="PSTRESS">      0.00000000</i>
   <i name="EDIFFG">     -0.03000000</i>
   <i type="int" name="NFREE">     1</i>
   <i name="POTIM">      0.50000000</i>
   <i name="SMASS">     -3.00000000</i>
   <i name="SCALEE">      1.00000000</i>
  </separator>
  <separator name="ionic md" >
   <i name="TEBEG">      0.00010000</i>
   <i name="TEEND">      0.00010000</i>
   <i type="int" name="NBLOCK">     1</i>
   <i type="int" name="KBLOCK">    30</i>
   <i type="int" name="NPACO">   256</i>
   <i name="APACO">     16.00000000</i>
  </separator>
  <separator name="symmetry" >
   <i type="int" name="ISYM">     2</i>
   <i name="SYMPREC">      0.00001000</i>
  </separator>
  <separator name="dos" >
   <i type="logical" name="LORBIT"> F  </i>
   <v name="RWIGS">     -1.00000000     -1.00000000     -1.00000000     -1.00000000</v>
   <i type="int" name="NEDOS">   301</i>
   <i name="EMIN">     10.00000000</i>
   <i name="EMAX">    -10.00000000</i>
   <i name="EFERMI">      0.00000000</i>
  </separator>
  <separator name="writing" >
   <i type="int" name="NWRITE">     2</i>
   <i type="logical" name="LWAVE"> T  </i>
   <i type="logical" name="LCHARG"> T  </i>
   <i type="logical" name="LPARD"> F  </i>
   <i type="logical" name="LVTOT"> F  </i>
   <i type="logical" name="LVHAR"> F  </i>
   <i type="logical" name="LELF"> F  </i>
   <i type="logical" name="LOPTICS"> F  </i>
   <v name="STM">      0.00000000      0.00000000      0.00000000      0.00000000      0.00000000      0.00000000      0.00000000</v>
  </separator>
  <separator name="performance" >
   <i type="int" name="NPAR">     2</i>
   <i type="int" name="NSIM">     4</i>
   <i type="int" name="NBLK">    -1</i>
   <i type="logical" name="LPLANE"> T  </i>
   <i type="logical" name="LSCALAPACK"> T  </i>
   <i type="logical" name="LSCAAWARE"> F  </i>
   <i type="logical" name="LSCALU"> F  </i>
   <i type="logical" name="LASYNC"> F  </i>
   <i type="logical" name="LORBITALREAL"> F  </i>
  </separator>
  <separator name="miscellaneous" >
   <i type="int" name="IDIOT">     3</i>
   <i type="logical" name="LMUSIC"> F  </i>
   <v name="POMASS">     87.62000000     47.88000000     55.84700000     16.00000000</v>
   <v name="DARWINR">      0.00000000      0.00000000      0.00000000      0.00000000</v>
   <v name="DARWINV">      1.00000000      1.00000000      1.00000000      1.00000000</v>
   <i type="logical" name="LCORR"> T  </i>
  </separator>
  <i type="logical" name="GGA_COMPAT"> T  </i>
  <i type="logical" name="LBERRY"> F  </i>
  <i type="int" name="ICORELEVEL">     0</i>
  <i type="logical" name="LDAU"> T  </i>
  <v type="int" name="LDAUTYPE">     2</v>
  <v type="int" name="LDAUL">     0</v>
  <v name="LDAUU">      0.00000000</v>
  <v name="LDAUJ">      0.00000000</v>
  <i type="int" name="LDAUPRINT">     1</i>
  <i type="int" name="I_CONSTRAINED_M">     0</i>
  <separator name="electronic exchange-correlation" >
   <i type="string" name="GGA">--</i>
   <i type="int" name="VOSKOWN">     0</i>
   <i type="logical" name="LHFCALC"> F  </i>
   <i type="string" name="PRECFOCK"></i>
   <i type="logical" name="LSYMGRAD"> F  </i>
   <i type="logical" name="LHFONE"> F  </i>
   <i type="logical" name="LRHFCALC"> F  </i>
   <i type="logical" name="LTHOMAS"> F  </i>
   <i type="logical" name="LMODELHF"> F  </i>
   <i name="ENCUT4O">     -1.00000000</i>
   <i type="int" name="EXXOEP">     0</i>
   <i type="int" name="FOURORBIT">     0</i>
   <i name="AEXX">      0.00000000</i>
   <i name="HFALPHA">      0.00000000</i>
   <i name="MCALPHA">      0.00000000</i>
   <i name="ALDAX">      1.00000000</i>
   <i name="AGGAX">      1.00000000</i>
   <i name="ALDAC">      1.00000000</i>
   <i name="AGGAC">      1.00000000</i>
   <i type="int" name="NKREDX">     1</i>
   <i type="int" name="NKREDY">     1</i>
   <i type="int" name="NKREDZ">     1</i>
   <i type="logical" name="SHIFTRED"> F  </i>
   <i type="logical" name="ODDONLY"> F  </i>
   <i type="logical" name="EVENONLY"> F  </i>
   <i type="int" name="LMAXFOCK">     0</i>
   <i type="int" name="NMAXFOCKAE">     0</i>
   <i type="logical" name="LFOCKAEDFT"> F  </i>
   <i name="HFSCREEN">      0.00000000</i>
   <i name="HFSCREENC">      0.00000000</i>
   <i type="int" name="NBANDSGWLOW">     0</i>
  </separator>
  <separator name="vdW DFT" >
   <i type="logical" name="LUSE_VDW"> F  </i>
   <i name="Zab_VDW">     -0.84910000</i>
   <i name="PARAM1">      0.12340000</i>
   <i name="PARAM2">      1.00000000</i>
   <i name="PARAM3">      0.00000000</i>
  </separator>
  <separator name="model GW" >
   <i type="int" name="MODEL_GW">     0</i>
   <i name="MODEL_EPS0">      7.91107302</i>
   <i name="MODEL_ALPHA">      1.00000000</i>
  </separator>
  <separator name="linear response parameters" >
   <i type="logical" name="LEPSILON"> F  </i>
   <i type="logical" name="LRPA"> F  </i>
   <i type="logical" name="LNABLA"> F  </i>
   <i type="logical" name="LVEL"> F  </i>
   <i type="int" name="KINTER">     0</i>
   <i name="CSHIFT">      0.10000000</i>
   <i name="OMEGAMAX">     -1.00000000</i>
   <i name="DEG_THRESHOLD">      0.00200000</i>
  </separator>
  <separator name="orbital magnetization" >
   <i type="logical" name="NUCIND"> F  </i>
   <v name="MAGPOS">      0.00000000      0.00000000      0.00000000</v>
   <i type="logical" name="LNICSALL"> T  </i>
   <i type="logical" name="ORBITALMAG"> F  </i>
   <i type="logical" name="LMAGBLOCH"> F  </i>
   <i type="logical" name="LCHIMAG"> F  </i>
   <i type="logical" name="LGAUGE"> T  </i>
   <i type="int" name="MAGATOM">     0</i>
   <v name="MAGDIPOL">      0.00000000      0.00000000      0.00000000</v>
   <v name="AVECCONST">      0.00000000      0.00000000      0.00000000</v>
  </separator>
  <separator name="response functions" >
   <i type="logical" name="LADDER"> F  </i>
   <i type="logical" name="LFXC"> F  </i>
   <i type="logical" name="LHARTREE"> T  </i>
   <i type="int" name="IBSE">     0</i>
   <v type="int" name="KPOINT">    -1     0     0     0</v>
   <i type="logical" name="LTCTE"> F  </i>
   <i type="logical" name="LTETE"> F  </i>
   <i type="logical" name="LTRIPLET"> F  </i>
   <i type="logical" name="LFXCEPS"> F  </i>
   <i type="logical" name="LFXHEG"> F  </i>
   <i type="int" name="NATURALO">     0</i>
   <i type="logical" name="L2ORDER"> F  </i>
   <i type="logical" name="LUSEW"> F  </i>
   <i name="ENCUTGW">     -2.00000000</i>
   <i name="ENCUTGWSOFT">     -2.00000000</i>
   <i name="ENCUTLF">     -1.00000000</i>
   <i type="int" name="LMAXMP2">    -1</i>
   <i name="SCISSOR">      0.00000000</i>
   <i type="int" name="NOMEGA">     0</i>
   <i type="int" name="NOMEGAR">     0</i>
   <i type="int" name="NBANDSGW">    -1</i>
   <i type="int" name="NBANDSO">    -1</i>
   <i type="int" name="NBANDSV">    -1</i>
   <i type="int" name="NELM">    40</i>
   <i type="int" name="NELMHF">     1</i>
   <i type="int" name="DIM">     3</i>
   <i type="int" name="ANTIRES">     0</i>
   <i name="OMEGAMAX">    -30.00000000</i>
   <i name="OMEGAMIN">    -30.00000000</i>
   <i name="OMEGATL">   -200.00000000</i>
   <i type="int" name="OMEGAGRID">     0</i>
   <i name="CSHIFT">     -0.10000000</i>
   <i type="logical" name="SELFENERGY"> F  </i>
   <i type="logical" name="LSPECTRAL"> F  </i>
   <i type="logical" name="LSPECTRALGW"> F  </i>
   <i type="logical" name="LSINGLES"> F  </i>
   <i type="logical" name="LFERMIGW"> F  </i>
   <i type="logical" name="ODDONLYGW"> F  </i>
   <i type="logical" name="EVENONLYGW"> F  </i>
   <i type="int" name="NKREDLFX">     1</i>
   <i type="int" name="NKREDLFY">     1</i>
   <i type="int" name="NKREDLFZ">     1</i>
   <i type="int" name="MAXMEM">  1800</i>
   <i type="int" name="TELESCOPE">     0</i>
   <i type="int" name="TAUPAR">     1</i>
   <i type="int" name="OMEGAPAR">    -1</i>
   <i name="LAMBDA">      1.00000000</i>
  </separator>
  <separator name="External order field" >
   <i name="OFIELD_KAPPA">      0.00000000</i>
   <v name="OFIELD_K">      0.00000000      0.00000000      0.00000000</v>
   <i name="OFIELD_Q6_NEAR">      0.00000000</i>
   <i name="OFIELD_Q6_FAR">      0.00000000</i>
   <i name="OFIELD_A">      0.00000000</i>
  </separator>
 </parameters>
 <atominfo>
  <atoms>     152 </atoms>
  <types>       4 </types>
  <array name="atoms" >
   <dimension dim="1">ion</dimension>
   <field type="string">element</field>
   <field type="int">atomtype</field>
   <set>
    <rc><c>Sr</c><c>   1</c></rc>
    <rc><c>Sr</c><c>   1</c></rc>
    <rc><c>Sr</c><c>   1</c></rc>
    <rc><c>Sr</c><c>   1</c></rc>
    <rc><c>Sr</c><c>   1</c></rc>
    <rc><c>Sr</c><c>   1</c></rc>
    <rc><c>Sr</c><c>   1</c></rc>
    <rc><c>Sr</c><c>   1</c></rc>
    <rc><c>Sr</c><c>   1</c></rc>
    <rc><c>Sr</c><c>   1</c></rc>
    <rc><c>Sr</c><c>   1</c></rc>
    <rc><c>Sr</c><c>   1</c></rc>
    <rc><c>Sr</c><c>   1</c></rc>
    <rc><c>Sr</c><c>   1</c></rc>
    <rc><c>Sr</c><c>   1</c></rc>
    <rc><c>Sr</c><c>   1</c></rc>
    <rc><c>Sr</c><c>   1</c></rc>
    <rc><c>Sr</c><c>   1</c></rc>
    <rc><c>Sr</c><c>   1</c></rc>
    <rc><c>Sr</c><c>   1</c></rc>
    <rc><c>Sr</c><c>   1</c></rc>
    <rc><c>Sr</c><c>   1</c></rc>
    <rc><c>Sr</c><c>   1</c></rc>
    <rc><c>Sr</c><c>   1</c></rc>
    <rc><c>Sr</c><c>   1</c></rc>
    <rc><c>Sr</c><c>   1</c></rc>
    <rc><c>Sr</c><c>   1</c></rc>
    <rc><c>Sr</c><c>   1</c></rc>
    <rc><c>Sr</c><c>   1</c></rc>
    <rc><c>Sr</c><c>   1</c></rc>
    <rc><c>Sr</c><c>   1</c></rc>
    <rc><c>Sr</c><c>   1</c></rc>
    <rc><c>Ti</c><c>   2</c></rc>
    <rc><c>Ti</c><c>   2</c></rc>
    <rc><c>Ti</c><c>   2</c></rc>
    <rc><c>Ti</c><c>   2</c></rc>
    <rc><c>Ti</c><c>   2</c></rc>
    <rc><c>Ti</c><c>   2</c></rc>
    <rc><c>Ti</c><c>   2</c></rc>
    <rc><c>Ti</c><c>   2</c></rc>
    <rc><c>Ti</c><c>   2</c></rc>
    <rc><c>Ti</c><c>   2</c></rc>
    <rc><c>Ti</c><c>   2</c></rc>
    <rc><c>Ti</c><c>   2</c></rc>
    <rc><c>Ti</c><c>   2</c></rc>
    <rc><c>Ti</c><c>   2</c></rc>
    <rc><c>Ti</c><c>   2</c></rc>
    <rc><c>Ti</c><c>   2</c></rc>
    <rc><c>Fe</c><c>   3</c></rc>
    <rc><c>Fe</c><c>   3</c></rc>
    <rc><c>Fe</c><c>   3</c></rc>
    <rc><c>Fe</c><c>   3</c></rc>
    <rc><c>Fe</c><c>   3</c></rc>
    <rc><c>Fe</c><c>   3</c></rc>
    <rc><c>Fe</c><c>   3</c></rc>
    <rc><c>Fe</c><c>   3</c></rc>
    <rc><c>Fe</c><c>   3</c></rc>
    <rc><c>Fe</c><c>   3</c></rc>
    <rc><c>Fe</c><c>   3</c></rc>
    <rc><c>Fe</c><c>   3</c></rc>
    <rc><c>Fe</c><c>   3</c></rc>
    <rc><c>Fe</c><c>   3</c></rc>
    <rc><c>Fe</c><c>   3</c></rc>
    <rc><c>Fe</c><c>   3</c></rc>
    <rc><c>O </c><c>   4</c></rc>
    <rc><c>O </c><c>   4</c></rc>
    <rc><c>O </c><c>   4</c></rc>
    <rc><c>O </c><c>   4</c></rc>
    <rc><c>O </c><c>   4</c></rc>
    <rc><c>O </c><c>   4</c></rc>
    <rc><c>O </c><c>   4</c></rc>
    <rc><c>O </c><c>   4</c></rc>
    <rc><c>O </c><c>   4</c></rc>
    <rc><c>O </c><c>   4</c></rc>
    <rc><c>O </c><c>   4</c></rc>
    <rc><c>O </c><c>   4</c></rc>
    <rc><c>O </c><c>   4</c></rc>
    <rc><c>O </c><c>   4</c></rc>
    <rc><c>O </c><c>   4</c></rc>
    <rc><c>O </c><c>   4</c></rc>
    <rc><c>O </c><c>   4</c></rc>
    <rc><c>O </c><c>   4</c></rc>
    <rc><c>O </c><c>   4</c></rc>
    <rc><c>O </c><c>   4</c></rc>
    <rc><c>O </c><c>   4</c></rc>
    <rc><c>O </c><c>   4</c></rc>
    <rc><c>O </c><c>   4</c></rc>
    <rc><c>O </c><c>   4</c></rc>
    <rc><c>O </c><c>   4</c></rc>
    <rc><c>O </c><c>   4</c></rc>
    <rc><c>O </c><c>   4</c></rc>
    <rc><c>O </c><c>   4</c></rc>
    <rc><c>O </c><c>   4</c></rc>
    <rc><c>O </c><c>   4</c></rc>
    <rc><c>O </c><c>   4</c></rc>
    <rc><c>O </c><c>   4</c></rc>
    <rc><c>O </c><c>   4</c></rc>
    <rc><c>O </c><c>   4</c></rc>
    <rc><c>O </c><c>   4</c></rc>
    <rc><c>O </c><c>   4</c></rc>
    <rc><c>O </c><c>   4</c></rc>
    <rc><c>O </c><c>   4</c></rc>
    <rc><c>O </c><c>   4</c></rc>
    <rc><c>O </c><c>   4</c></rc>
    <rc><c>O </c><c>   4</c></rc>
    <rc><c>O </c><c>   4</c></rc>
    <rc><c>O </c><c>   4</c></rc>
    <rc><c>O </c><c>   4</c></rc>
    <rc><c>O </c><c>   4</c></rc>
    <rc><c>O </c><c>   4</c></rc>
    <rc><c>O </c><c>   4</c></rc>
    <rc><c>O </c><c>   4</c></rc>
    <rc><c>O </c><c>   4</c></rc>
    <rc><c>O </c><c>   4</c></rc>
    <rc><c>O </c><c>   4</c></rc>
    <rc><c>O </c><c>   4</c></rc>
    <rc><c>O </c><c>   4</c></rc>
    <rc><c>O </c><c>   4</c></rc>
    <rc><c>O </c><c>   4</c></rc>
    <rc><c>O </c><c>   4</c></rc>
    <rc><c>O </c><c>   4</c></rc>
    <rc><c>O </c><c>   4</c></rc>
    <rc><c>O </c><c>   4</c></rc>
    <rc><c>O </c><c>   4</c></rc>
    <rc><c>O </c><c>   4</c></rc>
    <rc><c>O </c><c>   4</c></rc>
    <rc><c>O </c><c>   4</c></rc>
    <rc><c>O </c><c>   4</c></rc>
    <rc><c>O </c><c>   4</c></rc>
    <rc><c>O </c><c>   4</c></rc>
    <rc><c>O </c><c>   4</c></rc>
    <rc><c>O </c><c>   4</c></rc>
    <rc><c>O </c><c>   4</c></rc>
    <rc><c>O </c><c>   4</c></rc>
    <rc><c>O </c><c>   4</c></rc>
    <rc><c>O </c><c>   4</c></rc>
    <rc><c>O </c><c>   4</c></rc>
    <rc><c>O </c><c>   4</c></rc>
    <rc><c>O </c><c>   4</c></rc>
    <rc><c>O </c><c>   4</c></rc>
    <rc><c>O </c><c>   4</c></rc>
    <rc><c>O </c><c>   4</c></rc>
    <rc><c>O </c><c>   4</c></rc>
    <rc><c>O </c><c>   4</c></rc>
    <rc><c>O </c><c>   4</c></rc>
    <rc><c>O </c><c>   4</c></rc>
    <rc><c>O </c><c>   4</c></rc>
    <rc><c>O </c><c>   4</c></rc>
    <rc><c>O </c><c>   4</c></rc>
    <rc><c>O </c><c>   4</c></rc>
    <rc><c>O </c><c>   4</c></rc>
    <rc><c>O </c><c>   4</c></rc>
   </set>
  </array>
  <array name="atomtypes" >
   <dimension dim="1">type</dimension>
   <field type="int">atomspertype</field>
   <field type="string">element</field>
   <field>mass</field>
   <field>valence</field>
   <field type="string">pseudopotential</field>
   <set>
    <rc><c>  32</c><c>Sr</c><c>     87.62000000</c><c>     10.00000000</c><c>  PAW_PBE Sr_sv 07Sep2000               </c></rc>
    <rc><c>  16</c><c>Ti</c><c>     47.88000000</c><c>      4.00000000</c><c>  PAW_PBE Ti 08Apr2002                  </c></rc>
    <rc><c>  16</c><c>Fe</c><c>     55.84700000</c><c>      8.00000000</c><c>  PAW_PBE Fe 06Sep2000                  </c></rc>
    <rc><c>  88</c><c>O </c><c>     16.00000000</c><c>      6.00000000</c><c>  PAW_PBE O 08Apr2002                   </c></rc>
   </set>
  </array>
 </atominfo>
 <structure name="initialpos" >
  <crystal>
   <varray name="basis" >
    <v>      11.24339061       0.04182759       0.01385373 </v>
    <v>       0.04172489      11.24891083      -0.01450180 </v>
    <v>       0.02042926      -0.02067099      15.84628185 </v>
   </varray>
   <i name="volume">   2004.13849871 </i>
   <varray name="rec_basis" >
    <v>       0.08894251      -0.00033006      -0.00011510 </v>
    <v>      -0.00033086       0.08889887       0.00011639 </v>
    <v>      -0.00007806       0.00008164       0.06310649 </v>
   </varray>
  </crystal>
  <varray name="positions" >
   <v>       0.98487102       0.23259486       0.12053268 </v>
   <v>       0.00322289       0.25768380       0.62635134 </v>
   <v>       0.00842445       0.75149551       0.12458880 </v>
   <v>       0.00987360       0.75349648       0.62624404 </v>
   <v>       0.51065761       0.26239159       0.11847200 </v>
   <v>       0.48957543       0.24577065       0.62285234 </v>
   <v>       0.48690889       0.74470259       0.12033096 </v>
   <v>       0.48808215       0.74692281       0.62735796 </v>
   <v>       0.99130807       0.25107611       0.37723536 </v>
   <v>       0.00051727       0.24790754       0.86483462 </v>
   <v>       0.01517571       0.75743179       0.37526284 </v>
   <v>       0.00707004       0.75622909       0.87035883 </v>
   <v>       0.51158382       0.25936049       0.38009514 </v>
   <v>       0.49038861       0.24986607       0.87447488 </v>
   <v>       0.47677967       0.73957324       0.37775789 </v>
   <v>       0.49442061       0.74992757       0.87075016 </v>
   <v>       0.23783887       0.97899765       0.12070588 </v>
   <v>       0.25214498       0.00089076       0.62510189 </v>
   <v>       0.26757540       0.51252994       0.11532308 </v>
   <v>       0.24612790       0.49708508       0.62735782 </v>
   <v>       0.75200185       0.01126723       0.12571134 </v>
   <v>       0.74682610       0.00516795       0.62723968 </v>
   <v>       0.74449376       0.48902005       0.12352666 </v>
   <v>       0.74676916       0.49772605       0.62630358 </v>
   <v>       0.23919158       0.97911245       0.38026459 </v>
   <v>       0.24803403       0.00287824       0.86967859 </v>
   <v>       0.24798226       0.51590261       0.38188126 </v>
   <v>       0.25313104       0.49271911       0.86593206 </v>
   <v>       0.75609256       0.02241431       0.37546486 </v>
   <v>       0.74812835       0.00822624       0.87240771 </v>
   <v>       0.74255193       0.49393499       0.37917170 </v>
   <v>       0.74673220       0.49566946       0.87317053 </v>
   <v>       0.99831433       0.99834339       0.99782526 </v>
   <v>       0.00110043       0.49786238       0.99036874 </v>
   <v>       0.99916835       0.50583553       0.50175204 </v>
   <v>       0.49989999       0.99946590       0.99959453 </v>
   <v>       0.50394703       0.99705887       0.49390830 </v>
   <v>       0.49271066       0.49587136       0.50088793 </v>
   <v>       0.24835831       0.25240147       0.00381099 </v>
   <v>       0.25075020       0.74751585       0.99648141 </v>
   <v>       0.74705862       0.25248035       0.99727258 </v>
   <v>       0.74882415       0.25397233       0.50283675 </v>
   <v>       0.74608394       0.75335888       0.00912321 </v>
   <v>       0.24676183       0.22263051       0.25061234 </v>
   <v>       0.24681804       0.74978881       0.74795205 </v>
   <v>       0.99817123       0.00019077       0.74651105 </v>
   <v>       0.49593826       0.00484748       0.25020146 </v>
   <v>       0.49851180       0.00285585       0.75038494 </v>
   <v>       0.01172802       0.01566670       0.50004166 </v>
   <v>       0.50399503       0.50036507       0.99300643 </v>
   <v>       0.24880729       0.25326728       0.50055004 </v>
   <v>       0.24730068       0.75011865       0.50268337 </v>
   <v>       0.73622514       0.73981916       0.50890012 </v>
   <v>       0.24688795       0.24931322       0.74362879 </v>
   <v>       0.24877459       0.74457539       0.24740563 </v>
   <v>       0.75193202       0.24861200       0.24853567 </v>
   <v>       0.75539368       0.24372856       0.74889275 </v>
   <v>       0.75513738       0.74582843       0.24651406 </v>
   <v>       0.75281563       0.75036889       0.74285252 </v>
   <v>       0.98659618       0.98941568       0.25201548 </v>
   <v>       0.98960443       0.50993176       0.25946401 </v>
   <v>       0.99109409       0.50651935       0.74713041 </v>
   <v>       0.51526016       0.51822506       0.25110545 </v>
   <v>       0.49044365       0.50729075       0.74928984 </v>
   <v>       0.12871990       0.11120286       0.24558487 </v>
   <v>       0.11678992       0.12753354       0.74206626 </v>
   <v>       0.12782624       0.59113206       0.23182825 </v>
   <v>       0.12013799       0.63079057       0.74795395 </v>
   <v>       0.63226469       0.11125444       0.24962279 </v>
   <v>       0.61340769       0.13723052       0.75080067 </v>
   <v>       0.62486511       0.64562268       0.27302941 </v>
   <v>       0.62725668       0.62299449       0.74971428 </v>
   <v>       0.38160910       0.36618864       0.75000089 </v>
   <v>       0.37700551       0.87777461       0.24753390 </v>
   <v>       0.37970617       0.87083589       0.75053565 </v>
   <v>       0.90482705       0.37455080       0.23064703 </v>
   <v>       0.85559516       0.38526529       0.74734522 </v>
   <v>       0.84668116       0.88162421       0.26274177 </v>
   <v>       0.87463921       0.87760312       0.76581223 </v>
   <v>       0.39075383       0.13752163       0.26350289 </v>
   <v>       0.36631164       0.11550276       0.74928400 </v>
   <v>       0.37134035       0.61559386       0.24886953 </v>
   <v>       0.36847359       0.62252146       0.75277021 </v>
   <v>       0.88189900       0.12943612       0.25111114 </v>
   <v>       0.87241839       0.12497191       0.75010659 </v>
   <v>       0.87893180       0.62348267       0.23020241 </v>
   <v>       0.86845148       0.63487273       0.78167400 </v>
   <v>       0.22605247       0.30369313       0.34993535 </v>
   <v>       0.12052251       0.37802464       0.73921873 </v>
   <v>       0.11291097       0.86018982       0.24663772 </v>
   <v>       0.12728431       0.88004640       0.74681002 </v>
   <v>       0.62192714       0.37652844       0.24828502 </v>
   <v>       0.62867406       0.87834703       0.75954182 </v>
   <v>       0.37247137       0.37419161       0.99811069 </v>
   <v>       0.37762158       0.36602806       0.49842461 </v>
   <v>       0.37441434       0.87596106       0.00024296 </v>
   <v>       0.38982592       0.86710705       0.49688451 </v>
   <v>       0.87568903       0.37834661       0.00695559 </v>
   <v>       0.86996353       0.38345598       0.50384114 </v>
   <v>       0.87098021       0.86912446       0.98049257 </v>
   <v>       0.12662089       0.12382547       0.01869713 </v>
   <v>       0.12627944       0.13564071       0.48331218 </v>
   <v>       0.12404413       0.62038515       0.00624845 </v>
   <v>       0.11559131       0.63133105       0.50160052 </v>
   <v>       0.62258818       0.12507446       0.00110009 </v>
   <v>       0.62001485       0.13296802       0.49264125 </v>
   <v>       0.63423744       0.63133736       0.98027453 </v>
   <v>       0.61190975       0.63145510       0.49458321 </v>
   <v>       0.11801554       0.37652382       0.02381284 </v>
   <v>       0.12098701       0.38477089       0.51331502 </v>
   <v>       0.12295930       0.87302208       0.00097834 </v>
   <v>       0.12444688       0.87907931       0.50294468 </v>
   <v>       0.62632969       0.37603298       0.00550476 </v>
   <v>       0.62684862       0.38213708       0.49372203 </v>
   <v>       0.62677906       0.87425974       0.97639424 </v>
   <v>       0.66605238       0.88970813       0.49400483 </v>
   <v>       0.37337208       0.12621454       0.02059030 </v>
   <v>       0.37809754       0.11284853       0.47455268 </v>
   <v>       0.37784690       0.62637331       0.99017482 </v>
   <v>       0.36711922       0.61591817       0.50523764 </v>
   <v>       0.87378714       0.12537441       0.99388155 </v>
   <v>       0.87024122       0.12712431       0.50497645 </v>
   <v>       0.87803598       0.62378723       0.01282374 </v>
   <v>       0.86597949       0.65223455       0.46584105 </v>
   <v>       0.98073393       0.98463444       0.12210890 </v>
   <v>       0.98263169       0.98787961       0.62197149 </v>
   <v>       0.97239556       0.52764226       0.62321904 </v>
   <v>       0.52189628       0.97608674       0.12859430 </v>
   <v>       0.50467895       0.99806097       0.62030943 </v>
   <v>       0.50649930       0.51049710       0.12500083 </v>
   <v>       0.50970779       0.48797261       0.62697909 </v>
   <v>       0.98628776       0.98389941       0.38119170 </v>
   <v>       0.01511584       0.01107101       0.87555365 </v>
   <v>       0.00502166       0.48921568       0.37557660 </v>
   <v>       0.01193110       0.48601633       0.87601928 </v>
   <v>       0.53068285       0.96403159       0.36498696 </v>
   <v>       0.48658209       0.01297901       0.87753824 </v>
   <v>       0.48520849       0.48977297       0.37265130 </v>
   <v>       0.51574305       0.47862156       0.86799311 </v>
   <v>       0.23672750       0.24739536       0.88352093 </v>
   <v>       0.24492757       0.74634831       0.37313395 </v>
   <v>       0.24324316       0.75363950       0.87424734 </v>
   <v>       0.75753997       0.25990634       0.37389595 </v>
   <v>       0.73894806       0.26145907       0.87317817 </v>
   <v>       0.26437195       0.29285118       0.14629067 </v>
   <v>       0.25760262       0.23381415       0.61935105 </v>
   <v>       0.25359560       0.74889509       0.12126379 </v>
   <v>       0.25494208       0.75259688       0.62620321 </v>
   <v>       0.74929939       0.24608508       0.12299488 </v>
   <v>       0.72903481       0.26051349       0.62658720 </v>
   <v>       0.72021410       0.77218788       0.12220566 </v>
   <v>       0.77710886       0.75245085       0.62382143 </v>
  </varray>
 </structure>
 <calculation>
  <scstep>
   <time name="dav">  576.51  576.54</time>
   <time name="total">  583.88  583.99</time>
   <energy>
    <i name="alphaZ">   5619.49061890 </i>
    <i name="ewald"> -62017.14247332 </i>
    <i name="hartreedc"> -17590.59336885 </i>
    <i name="XCdc">   3183.67092153 </i>
    <i name="pawpsdc"> 114362.76557203 </i>
    <i name="pawaedc">-113564.50234805 </i>
    <i name="eentropy">     -0.01767294 </i>
    <i name="bandstr">  -7098.33611645 </i>
    <i name="atom">  76050.17612637 </i>
    <i name="e_fr_energy">  -1054.48874078 </i>
    <i name="e_wo_entrp">  -1054.47106783 </i>
    <i name="e_0_energy">  -1054.47990430 </i>
   </energy>
  </scstep>
  <scstep>
   <time name="diag">   65.04   65.04</time>
   <time name="diis">   60.27   60.30</time>
   <time name="orth">   33.34   33.34</time>
   <time name="total">  165.93  166.09</time>
   <energy>
    <i name="e_fr_energy">  -1054.48874247 </i>
    <i name="e_wo_entrp">  -1054.47122755 </i>
    <i name="e_0_energy">  -1054.47998501 </i>
   </energy>
  </scstep>
  <scstep>
   <time name="diag">   64.99   65.00</time>
   <time name="diis">   57.82   57.83</time>
   <time name="orth">   33.34   33.34</time>
   <time name="total">  163.45  163.52</time>
   <energy>
    <i name="e_fr_energy">  -1054.48874115 </i>
    <i name="e_wo_entrp">  -1054.47114886 </i>
    <i name="e_0_energy">  -1054.47994501 </i>
   </energy>
  </scstep>
  <scstep>
   <time name="diag">   65.04   65.04</time>
   <time name="diis">   49.41   49.42</time>
   <time name="orth">   33.36   33.36</time>
   <time name="total">  155.13  155.16</time>
   <energy>
    <i name="e_fr_energy">  -1054.48874145 </i>
    <i name="e_wo_entrp">  -1054.47112942 </i>
    <i name="e_0_energy">  -1054.47993544 </i>
   </energy>
  </scstep>
  <scstep>
   <time name="diag">   64.98   65.01</time>
   <time name="diis">   48.25   48.26</time>
   <time name="orth">   33.32   33.32</time>
   <time name="total">  153.86  154.01</time>
   <energy>
    <i name="e_fr_energy">  -1054.48874163 </i>
    <i name="e_wo_entrp">  -1054.47113215 </i>
    <i name="e_0_energy">  -1054.47993689 </i>
   </energy>
  </scstep>
  <scstep>
   <time name="diag">   64.94   64.99</time>
   <time name="diis">   44.87   44.90</time>
   <time name="orth">   33.31   33.31</time>
   <time name="total">  150.43  150.55</time>
   <energy>
    <i name="e_fr_energy">  -1054.48874192 </i>
    <i name="e_wo_entrp">  -1054.47113643 </i>
    <i name="e_0_energy">  -1054.47993917 </i>
   </energy>
  </scstep>
  <scstep>
   <time name="diag">   64.98   65.00</time>
   <time name="diis">   45.21   45.21</time>
   <time name="orth">   33.26   33.26</time>
   <time name="total">  150.76  150.86</time>
   <energy>
    <i name="e_fr_energy">  -1054.48874213 </i>
    <i name="e_wo_entrp">  -1054.47112898 </i>
    <i name="e_0_energy">  -1054.47993555 </i>
   </energy>
  </scstep>
  <scstep>
   <time name="diag">   65.08   65.08</time>
   <time name="diis">   44.85   44.88</time>
   <time name="orth">   33.34   33.35</time>
   <time name="total">  144.33  144.48</time>
   <energy>
    <i name="alphaZ">   5619.49061890 </i>
    <i name="ewald"> -62017.14247332 </i>
    <i name="hartreedc"> -17590.57907012 </i>
    <i name="XCdc">   3183.66980983 </i>
    <i name="pawpsdc"> 114362.77750637 </i>
    <i name="pawaedc">-113564.51089261 </i>
    <i name="eentropy">     -0.01761005 </i>
    <i name="bandstr">  -7098.35275797 </i>
    <i name="atom">  76050.17612637 </i>
    <i name="e_fr_energy">  -1054.48874260 </i>
    <i name="e_wo_entrp">  -1054.47113255 </i>
    <i name="e_0_energy">  -1054.47993757 </i>
   </energy>
  </scstep>
  <structure>
   <crystal>
    <varray name="basis" >
     <v>      11.24339061       0.04182759       0.01385373 </v>
     <v>       0.04172489      11.24891083      -0.01450180 </v>
     <v>       0.02042926      -0.02067099      15.84628185 </v>
    </varray>
    <i name="volume">   2004.13849871 </i>
    <varray name="rec_basis" >
     <v>       0.08894251      -0.00033006      -0.00011510 </v>
     <v>      -0.00033086       0.08889887       0.00011639 </v>
     <v>      -0.00007806       0.00008164       0.06310649 </v>
    </varray>
   </crystal>
   <varray name="positions" >
    <v>       0.98487102       0.23259486       0.12053268 </v>
    <v>       0.00322289       0.25768380       0.62635134 </v>
    <v>       0.00842445       0.75149551       0.12458880 </v>
    <v>       0.00987360       0.75349648       0.62624404 </v>
    <v>       0.51065761       0.26239159       0.11847200 </v>
    <v>       0.48957543       0.24577065       0.62285234 </v>
    <v>       0.48690889       0.74470259       0.12033096 </v>
    <v>       0.48808215       0.74692281       0.62735796 </v>
    <v>       0.99130807       0.25107611       0.37723536 </v>
    <v>       0.00051727       0.24790754       0.86483462 </v>
    <v>       0.01517571       0.75743179       0.37526284 </v>
    <v>       0.00707004       0.75622909       0.87035883 </v>
    <v>       0.51158382       0.25936049       0.38009514 </v>
    <v>       0.49038861       0.24986607       0.87447488 </v>
    <v>       0.47677967       0.73957324       0.37775789 </v>
    <v>       0.49442061       0.74992757       0.87075016 </v>
    <v>       0.23783887       0.97899765       0.12070588 </v>
    <v>       0.25214498       0.00089076       0.62510189 </v>
    <v>       0.26757540       0.51252994       0.11532308 </v>
    <v>       0.24612790       0.49708508       0.62735782 </v>
    <v>       0.75200185       0.01126723       0.12571134 </v>
    <v>       0.74682610       0.00516795       0.62723968 </v>
    <v>       0.74449376       0.48902005       0.12352666 </v>
    <v>       0.74676916       0.49772605       0.62630358 </v>
    <v>       0.23919158       0.97911245       0.38026459 </v>
    <v>       0.24803403       0.00287824       0.86967859 </v>
    <v>       0.24798226       0.51590261       0.38188126 </v>
    <v>       0.25313104       0.49271911       0.86593206 </v>
    <v>       0.75609256       0.02241431       0.37546486 </v>
    <v>       0.74812835       0.00822624       0.87240771 </v>
    <v>       0.74255193       0.49393499       0.37917170 </v>
    <v>       0.74673220       0.49566946       0.87317053 </v>
    <v>       0.99831433       0.99834339       0.99782526 </v>
    <v>       0.00110043       0.49786238       0.99036874 </v>
    <v>       0.99916835       0.50583553       0.50175204 </v>
    <v>       0.49989999       0.99946590       0.99959453 </v>
    <v>       0.50394703       0.99705887       0.49390830 </v>
    <v>       0.49271066       0.49587136       0.50088793 </v>
    <v>       0.24835831       0.25240147       0.00381099 </v>
    <v>       0.25075020       0.74751585       0.99648141 </v>
    <v>       0.74705862       0.25248035       0.99727258 </v>
    <v>       0.74882415       0.25397233       0.50283675 </v>
    <v>       0.74608394       0.75335888       0.00912321 </v>
    <v>       0.24676183       0.22263051       0.25061234 </v>
    <v>       0.24681804       0.74978881       0.74795205 </v>
    <v>       0.99817123       0.00019077       0.74651105 </v>
    <v>       0.49593826       0.00484748       0.25020146 </v>
    <v>       0.49851180       0.00285585       0.75038494 </v>
    <v>       0.01172802       0.01566670       0.50004166 </v>
    <v>       0.50399503       0.50036507       0.99300643 </v>
    <v>       0.24880729       0.25326728       0.50055004 </v>
    <v>       0.24730068       0.75011865       0.50268337 </v>
    <v>       0.73622514       0.73981916       0.50890012 </v>
    <v>       0.24688795       0.24931322       0.74362879 </v>
    <v>       0.24877459       0.74457539       0.24740563 </v>
    <v>       0.75193202       0.24861200       0.24853567 </v>
    <v>       0.75539368       0.24372856       0.74889275 </v>
    <v>       0.75513738       0.74582843       0.24651406 </v>
    <v>       0.75281563       0.75036889       0.74285252 </v>
    <v>       0.98659618       0.98941568       0.25201548 </v>
    <v>       0.98960443       0.50993176       0.25946401 </v>
    <v>       0.99109409       0.50651935       0.74713041 </v>
    <v>       0.51526016       0.51822506       0.25110545 </v>
    <v>       0.49044365       0.50729075       0.74928984 </v>
    <v>       0.12871990       0.11120286       0.24558487 </v>
    <v>       0.11678992       0.12753354       0.74206626 </v>
    <v>       0.12782624       0.59113206       0.23182825 </v>
    <v>       0.12013799       0.63079057       0.74795395 </v>
    <v>       0.63226469       0.11125444       0.24962279 </v>
    <v>       0.61340769       0.13723052       0.75080067 </v>
    <v>       0.62486511       0.64562268       0.27302941 </v>
    <v>       0.62725668       0.62299449       0.74971428 </v>
    <v>       0.38160910       0.36618864       0.75000089 </v>
    <v>       0.37700551       0.87777461       0.24753390 </v>
    <v>       0.37970617       0.87083589       0.75053565 </v>
    <v>       0.90482705       0.37455080       0.23064703 </v>
    <v>       0.85559516       0.38526529       0.74734522 </v>
    <v>       0.84668116       0.88162421       0.26274177 </v>
    <v>       0.87463921       0.87760312       0.76581223 </v>
    <v>       0.39075383       0.13752163       0.26350289 </v>
    <v>       0.36631164       0.11550276       0.74928400 </v>
    <v>       0.37134035       0.61559386       0.24886953 </v>
    <v>       0.36847359       0.62252146       0.75277021 </v>
    <v>       0.88189900       0.12943612       0.25111114 </v>
    <v>       0.87241839       0.12497191       0.75010659 </v>
    <v>       0.87893180       0.62348267       0.23020241 </v>
    <v>       0.86845148       0.63487273       0.78167400 </v>
    <v>       0.22605247       0.30369313       0.34993535 </v>
    <v>       0.12052251       0.37802464       0.73921873 </v>
    <v>       0.11291097       0.86018982       0.24663772 </v>
    <v>       0.12728431       0.88004640       0.74681002 </v>
    <v>       0.62192714       0.37652844       0.24828502 </v>
    <v>       0.62867406       0.87834703       0.75954182 </v>
    <v>       0.37247137       0.37419161       0.99811069 </v>
    <v>       0.37762158       0.36602806       0.49842461 </v>
    <v>       0.37441434       0.87596106       0.00024296 </v>
    <v>       0.38982592       0.86710705       0.49688451 </v>
    <v>       0.87568903       0.37834661       0.00695559 </v>
    <v>       0.86996353       0.38345598       0.50384114 </v>
    <v>       0.87098021       0.86912446       0.98049257 </v>
    <v>       0.12662089       0.12382547       0.01869713 </v>
    <v>       0.12627944       0.13564071       0.48331218 </v>
    <v>       0.12404413       0.62038515       0.00624845 </v>
    <v>       0.11559131       0.63133105       0.50160052 </v>
    <v>       0.62258818       0.12507446       0.00110009 </v>
    <v>       0.62001485       0.13296802       0.49264125 </v>
    <v>       0.63423744       0.63133736       0.98027453 </v>
    <v>       0.61190975       0.63145510       0.49458321 </v>
    <v>       0.11801554       0.37652382       0.02381284 </v>
    <v>       0.12098701       0.38477089       0.51331502 </v>
    <v>       0.12295930       0.87302208       0.00097834 </v>
    <v>       0.12444688       0.87907931       0.50294468 </v>
    <v>       0.62632969       0.37603298       0.00550476 </v>
    <v>       0.62684862       0.38213708       0.49372203 </v>
    <v>       0.62677906       0.87425974       0.97639424 </v>
    <v>       0.66605238       0.88970813       0.49400483 </v>
    <v>       0.37337208       0.12621454       0.02059030 </v>
    <v>       0.37809754       0.11284853       0.47455268 </v>
    <v>       0.37784690       0.62637331       0.99017482 </v>
    <v>       0.36711922       0.61591817       0.50523764 </v>
    <v>       0.87378714       0.12537441       0.99388155 </v>
    <v>       0.87024122       0.12712431       0.50497645 </v>
    <v>       0.87803598       0.62378723       0.01282374 </v>
    <v>       0.86597949       0.65223455       0.46584105 </v>
    <v>       0.98073393       0.98463444       0.12210890 </v>
    <v>       0.98263169       0.98787961       0.62197149 </v>
    <v>       0.97239556       0.52764226       0.62321904 </v>
    <v>       0.52189628       0.97608674       0.12859430 </v>
    <v>       0.50467895       0.99806097       0.62030943 </v>
    <v>       0.50649930       0.51049710       0.12500083 </v>
    <v>       0.50970779       0.48797261       0.62697909 </v>
    <v>       0.98628776       0.98389941       0.38119170 </v>
    <v>       0.01511584       0.01107101       0.87555365 </v>
    <v>       0.00502166       0.48921568       0.37557660 </v>
    <v>       0.01193110       0.48601633       0.87601928 </v>
    <v>       0.53068285       0.96403159       0.36498696 </v>
    <v>       0.48658209       0.01297901       0.87753824 </v>
    <v>       0.48520849       0.48977297       0.37265130 </v>
    <v>       0.51574305       0.47862156       0.86799311 </v>
    <v>       0.23672750       0.24739536       0.88352093 </v>
    <v>       0.24492757       0.74634831       0.37313395 </v>
    <v>       0.24324316       0.75363950       0.87424734 </v>
    <v>       0.75753997       0.25990634       0.37389595 </v>
    <v>       0.73894806       0.26145907       0.87317817 </v>
    <v>       0.26437195       0.29285118       0.14629067 </v>
    <v>       0.25760262       0.23381415       0.61935105 </v>
    <v>       0.25359560       0.74889509       0.12126379 </v>
    <v>       0.25494208       0.75259688       0.62620321 </v>
    <v>       0.74929939       0.24608508       0.12299488 </v>
    <v>       0.72903481       0.26051349       0.62658720 </v>
    <v>       0.72021410       0.77218788       0.12220566 </v>
    <v>       0.77710886       0.75245085       0.62382143 </v>
   </varray>
  </structure>
  <varray name="forces" >
   <v>      -0.01405299       0.00702881       0.00113518 </v>
   <v>       0.00454347      -0.00667440      -0.01311439 </v>
   <v>      -0.00497320       0.00695856      -0.01053169 </v>
   <v>       0.01668410       0.01231542      -0.00593917 </v>
   <v>      -0.01300643      -0.01187857       0.01593070 </v>
   <v>       0.00701579       0.00263453       0.00795172 </v>
   <v>       0.00043683      -0.00011947       0.00815804 </v>
   <v>       0.01224918       0.00506406      -0.00130510 </v>
   <v>      -0.01086451       0.00119236       0.01317800 </v>
   <v>       0.00801186       0.00138922      -0.00736444 </v>
   <v>      -0.00114273      -0.02466063       0.00635970 </v>
   <v>       0.00981146       0.01524158      -0.00714069 </v>
   <v>       0.00263599      -0.01262314      -0.01568336 </v>
   <v>      -0.00530915       0.00907630       0.00499697 </v>
   <v>       0.00528200      -0.01197925      -0.00288199 </v>
   <v>      -0.00388049      -0.00500718       0.00782546 </v>
   <v>       0.01456402       0.00655577       0.00621693 </v>
   <v>      -0.01200247      -0.00892059      -0.00573038 </v>
   <v>       0.00719541       0.00485115      -0.00443659 </v>
   <v>      -0.00047569      -0.00865685       0.00176235 </v>
   <v>      -0.00774838       0.00341692      -0.00680117 </v>
   <v>      -0.00836383      -0.00063766      -0.00506915 </v>
   <v>      -0.00046122      -0.00393027       0.00108206 </v>
   <v>      -0.01047817      -0.00024281      -0.00844693 </v>
   <v>       0.00383639       0.01734092       0.00449327 </v>
   <v>      -0.00415738      -0.00811666       0.00271905 </v>
   <v>      -0.00136519      -0.01026518      -0.00301610 </v>
   <v>       0.00955012      -0.00889157       0.00239201 </v>
   <v>       0.00535058       0.00020466      -0.00170091 </v>
   <v>       0.00496854       0.01912067      -0.01179727 </v>
   <v>       0.00283283       0.00229836       0.00354267 </v>
   <v>      -0.00691450       0.01069806      -0.00324673 </v>
   <v>      -0.00567426       0.01438117       0.00795317 </v>
   <v>      -0.00350891      -0.00891086       0.01974347 </v>
   <v>      -0.00552389      -0.02057244      -0.02141173 </v>
   <v>      -0.00782735       0.00675087       0.02799657 </v>
   <v>      -0.01099763       0.01621522      -0.04538576 </v>
   <v>       0.01930059      -0.01013642      -0.00532707 </v>
   <v>       0.01658104       0.01669807      -0.00655424 </v>
   <v>       0.00774743      -0.00365283      -0.00465485 </v>
   <v>      -0.00885368       0.00418816      -0.00937387 </v>
   <v>      -0.01481294       0.00129681       0.02570493 </v>
   <v>       0.01043695       0.00300135       0.11129551 </v>
   <v>       0.06136938       0.01920702       0.01864613 </v>
   <v>      -0.05824956       0.05514235      -0.01702744 </v>
   <v>       0.01941426      -0.03129602      -0.01554281 </v>
   <v>       0.00130610       0.01395460      -0.01698051 </v>
   <v>      -0.00271412       0.00501725       0.00421431 </v>
   <v>       0.01617827      -0.00240719       0.01388440 </v>
   <v>      -0.02413326      -0.01162211      -0.00551285 </v>
   <v>      -0.00201114      -0.00138585      -0.02771572 </v>
   <v>      -0.01862702      -0.00480362      -0.00342930 </v>
   <v>       0.01111335      -0.01898446       0.01978766 </v>
   <v>      -0.00120377       0.00575308      -0.00161742 </v>
   <v>      -0.00930937      -0.01083793       0.00713619 </v>
   <v>       0.00232338      -0.00381910      -0.01280296 </v>
   <v>      -0.02791634       0.00848604      -0.01667218 </v>
   <v>       0.00288730      -0.02783720       0.00936794 </v>
   <v>      -0.00009988      -0.01880973      -0.02374140 </v>
   <v>       0.00498296      -0.00078412      -0.00587816 </v>
   <v>       0.00464155       0.02202830       0.00713833 </v>
   <v>      -0.00924810      -0.00206271       0.01083433 </v>
   <v>      -0.01672724      -0.00193999       0.00490366 </v>
   <v>       0.02483263      -0.03364594      -0.00103107 </v>
   <v>      -0.02584642      -0.01376368      -0.00038621 </v>
   <v>      -0.00339603      -0.01045064       0.00865724 </v>
   <v>       0.01044247      -0.00105390       0.00071435 </v>
   <v>       0.00822310       0.00131020       0.00709455 </v>
   <v>       0.00453420       0.00282992       0.01178766 </v>
   <v>      -0.00150181      -0.01739405      -0.00757678 </v>
   <v>       0.02103738       0.02152838      -0.01045234 </v>
   <v>      -0.00158655       0.00868472       0.00110484 </v>
   <v>      -0.00730517      -0.00528099      -0.01166956 </v>
   <v>       0.00489944      -0.00486367       0.00455110 </v>
   <v>      -0.00635935      -0.00679117      -0.00368573 </v>
   <v>      -0.01209149      -0.00908377      -0.00758144 </v>
   <v>       0.01924918       0.02712365      -0.00779839 </v>
   <v>       0.00628639       0.01946647       0.00236109 </v>
   <v>      -0.01954869       0.00582429       0.01090328 </v>
   <v>      -0.02166816       0.01063721      -0.02231694 </v>
   <v>      -0.00551702       0.01932512      -0.00209047 </v>
   <v>       0.01455787      -0.01129379      -0.00349596 </v>
   <v>      -0.01686878       0.01352492       0.00068567 </v>
   <v>       0.01692362       0.00868148       0.00648823 </v>
   <v>       0.03134821      -0.02367243       0.00092352 </v>
   <v>      -0.00336296      -0.00074244      -0.00240993 </v>
   <v>       0.00279088      -0.02399421       0.00261164 </v>
   <v>       0.01221133       0.01186866       0.02217243 </v>
   <v>      -0.00290605       0.00091317      -0.00135936 </v>
   <v>      -0.00165408       0.00689754      -0.00621774 </v>
   <v>      -0.00267051      -0.00354476       0.00146937 </v>
   <v>       0.00886699       0.01058345      -0.00771080 </v>
   <v>       0.00015154      -0.01031197       0.01868557 </v>
   <v>      -0.00543546      -0.00945767       0.01203302 </v>
   <v>       0.00403939       0.00163378       0.01004234 </v>
   <v>       0.01744397       0.00842426       0.00102469 </v>
   <v>       0.00570846      -0.01456788       0.01137096 </v>
   <v>       0.01849679       0.00497479       0.00353850 </v>
   <v>       0.00230225       0.00484279      -0.00143765 </v>
   <v>      -0.00995004      -0.02126770      -0.00200467 </v>
   <v>      -0.00752180      -0.00544214      -0.00311917 </v>
   <v>      -0.00893718       0.01085288       0.01076544 </v>
   <v>      -0.02025467      -0.00645918      -0.00688118 </v>
   <v>       0.02526261       0.00867162      -0.01303255 </v>
   <v>      -0.00612643       0.00110602       0.00064143 </v>
   <v>      -0.01381617      -0.00097504      -0.00252919 </v>
   <v>       0.00108613       0.00463663       0.00475837 </v>
   <v>       0.02072620       0.01014614      -0.00333682 </v>
   <v>      -0.00243069       0.01352101       0.00213768 </v>
   <v>       0.01470316       0.00300269      -0.00213671 </v>
   <v>       0.00455470       0.00101880      -0.00232032 </v>
   <v>       0.01130073      -0.00482413      -0.00445656 </v>
   <v>       0.02410795      -0.01073416      -0.00149921 </v>
   <v>       0.00742630      -0.00620265       0.00444135 </v>
   <v>      -0.00849204      -0.00220838      -0.00824302 </v>
   <v>      -0.01483787       0.01139763      -0.00629147 </v>
   <v>      -0.00611126       0.01047419       0.00852348 </v>
   <v>       0.00526711       0.01224337       0.00962530 </v>
   <v>       0.01195544      -0.00942790       0.00595003 </v>
   <v>      -0.02306342       0.00680501       0.00363314 </v>
   <v>      -0.00026474       0.01097683       0.00518347 </v>
   <v>       0.00163261      -0.00077855      -0.00100778 </v>
   <v>      -0.00673264      -0.00366976      -0.00207018 </v>
   <v>      -0.00977158       0.01797645       0.00860888 </v>
   <v>       0.02577939       0.00244534      -0.00622053 </v>
   <v>      -0.01148056       0.01299034       0.00533060 </v>
   <v>      -0.00509263       0.00730935       0.00607435 </v>
   <v>       0.01665886      -0.01500987      -0.02517006 </v>
   <v>      -0.01042632       0.00335993      -0.00481570 </v>
   <v>      -0.00177611       0.00584676      -0.00323101 </v>
   <v>      -0.01361631       0.00856185      -0.00601620 </v>
   <v>      -0.01778318      -0.00953912      -0.00641184 </v>
   <v>       0.00005769       0.02006080      -0.01260105 </v>
   <v>       0.00623427      -0.01735954       0.00198194 </v>
   <v>       0.00795190      -0.00544235       0.00490522 </v>
   <v>      -0.00229724      -0.01047446       0.01552073 </v>
   <v>      -0.01420587      -0.01057574       0.01266545 </v>
   <v>      -0.00075482       0.00405636      -0.02924150 </v>
   <v>       0.00088036       0.00480730      -0.01230758 </v>
   <v>      -0.01050146      -0.01506565       0.00977903 </v>
   <v>      -0.00430161      -0.00577508       0.02169165 </v>
   <v>       0.00486022      -0.01404595      -0.01726469 </v>
   <v>       0.00313153       0.00234022      -0.00094569 </v>
   <v>      -0.00710162      -0.01402329       0.02486927 </v>
   <v>      -0.01838471       0.00762699       0.01542511 </v>
   <v>      -0.00408996       0.00191769      -0.00172399 </v>
   <v>       0.00062696      -0.00162339       0.01685227 </v>
   <v>       0.01020690      -0.01040439      -0.00029914 </v>
   <v>       0.01268432       0.01123380      -0.00255678 </v>
   <v>       0.00335174      -0.00210975       0.00557834 </v>
   <v>       0.00195832      -0.01059806      -0.08453173 </v>
   <v>      -0.01952642      -0.00555250       0.00380772 </v>
  </varray>
  <varray name="stress" >
   <v>       0.08100008       0.08824987       0.08704949 </v>
   <v>       0.08825006       0.31445097       0.00471539 </v>
   <v>       0.08704917       0.00471515      -0.03933619 </v>
  </varray>
  <energy>
   <i name="e_fr_energy">  -1054.48874260 </i>
   <i name="e_wo_entrp">  -1054.47993757 </i>
   <i name="e_0_energy">     -0.01761005 </i>
  </energy>
  <time name="totalsc"> 1932.83 1935.49</time>
 </calculation>
 <calculation>
  <scstep>
   <time name="dav">  562.88  562.87</time>
   <time name="total">  570.16  570.24</time>
   <energy>
    <i name="alphaZ">   5618.69623990 </i>
    <i name="ewald"> -62014.76459103 </i>
    <i name="hartreedc"> -17589.22639556 </i>
    <i name="XCdc">   3183.47616002 </i>
    <i name="pawpsdc"> 114362.77849723 </i>
    <i name="pawaedc">-113564.51169118 </i>
    <i name="eentropy">     -0.01765438 </i>
    <i name="bandstr">  -7101.09402715 </i>
    <i name="atom">  76050.17612637 </i>
    <i name="e_fr_energy">  -1054.48733578 </i>
    <i name="e_wo_entrp">  -1054.46968140 </i>
    <i name="e_0_energy">  -1054.47850859 </i>
   </energy>
  </scstep>
  <scstep>
   <time name="diag">   65.02   65.03</time>
   <time name="diis">  105.19  105.23</time>
   <time name="orth">   33.29   33.32</time>
   <time name="total">  210.75  210.93</time>
   <energy>
    <i name="e_fr_energy">  -1054.48986816 </i>
    <i name="e_wo_entrp">  -1054.47186282 </i>
    <i name="e_0_energy">  -1054.48086549 </i>
   </energy>
  </scstep>
  <scstep>
   <time name="diag">   64.91   64.93</time>
   <time name="diis">  106.35  106.39</time>
   <time name="orth">   33.30   33.30</time>
   <time name="total">  211.83  211.95</time>
   <energy>
    <i name="e_fr_energy">  -1054.48995322 </i>
    <i name="e_wo_entrp">  -1054.47240611 </i>
    <i name="e_0_energy">  -1054.48117966 </i>
   </energy>
  </scstep>
  <scstep>
   <time name="diag">   65.01   65.01</time>
   <time name="diis">   73.92   73.92</time>
   <time name="orth">   33.38   33.38</time>
   <time name="total">  179.60  179.64</time>
   <energy>
    <i name="e_fr_energy">  -1054.48985192 </i>
    <i name="e_wo_entrp">  -1054.47198311 </i>
    <i name="e_0_energy">  -1054.48091752 </i>
   </energy>
  </scstep>
  <scstep>
   <time name="diag">   65.09   65.10</time>
   <time name="diis">   88.63   88.70</time>
   <time name="orth">   33.30   33.30</time>
   <time name="total">  194.31  194.47</time>
   <energy>
    <i name="e_fr_energy">  -1054.48976098 </i>
    <i name="e_wo_entrp">  -1054.47180691 </i>
    <i name="e_0_energy">  -1054.48078394 </i>
   </energy>
  </scstep>
  <scstep>
   <time name="diag">   65.01   65.04</time>
   <time name="diis">   66.53   66.55</time>
   <time name="orth">   33.38   33.38</time>
   <time name="total">  172.21  172.28</time>
   <energy>
    <i name="e_fr_energy">  -1054.48973822 </i>
    <i name="e_wo_entrp">  -1054.47207006 </i>
    <i name="e_0_energy">  -1054.48090414 </i>
   </energy>
  </scstep>
  <scstep>
   <time name="diag">   65.22   65.22</time>
   <time name="diis">   64.10   64.15</time>
   <time name="orth">   33.34   33.34</time>
   <time name="total">  169.94  170.10</time>
   <energy>
    <i name="e_fr_energy">  -1054.48973466 </i>
    <i name="e_wo_entrp">  -1054.47195978 </i>
    <i name="e_0_energy">  -1054.48084722 </i>
   </energy>
  </scstep>
  <scstep>
   <time name="diag">   65.08   65.10</time>
   <time name="diis">   61.90   61.92</time>
   <time name="orth">   33.47   33.47</time>
   <time name="total">  161.51  161.57</time>
   <energy>
    <i name="alphaZ">   5618.69623990 </i>
    <i name="ewald"> -62014.76459103 </i>
    <i name="hartreedc"> -17591.26084019 </i>
    <i name="XCdc">   3183.61813447 </i>
    <i name="pawpsdc"> 114333.23558970 </i>
    <i name="pawaedc">-113534.93615238 </i>
    <i name="eentropy">     -0.01777847 </i>
    <i name="bandstr">  -7099.23646187 </i>
    <i name="atom">  76050.17612637 </i>
    <i name="e_fr_energy">  -1054.48973351 </i>
    <i name="e_wo_entrp">  -1054.47195504 </i>
    <i name="e_0_energy">  -1054.48084428 </i>
   </energy>
  </scstep>
  <structure>
   <crystal>
    <varray name="basis" >
     <v>      11.24375412       0.04222676       0.01424217 </v>
     <v>       0.04211985      11.25031659      -0.01447908 </v>
     <v>       0.02097684      -0.02064319      15.84603505 </v>
    </varray>
    <i name="volume">   2004.42184657 </i>
    <varray name="rec_basis" >
     <v>       0.08893967      -0.00033313      -0.00011817 </v>
     <v>      -0.00033397       0.08888779       0.00011624 </v>
     <v>      -0.00008024       0.00008152       0.06310748 </v>
    </varray>
   </crystal>
   <varray name="positions" >
    <v>       0.98481060       0.23262523       0.12053622 </v>
    <v>       0.00324256       0.25765502       0.62631138 </v>
    <v>       0.00840306       0.75152537       0.12455678 </v>
    <v>       0.00994502       0.75354899       0.62622595 </v>
    <v>       0.51060190       0.26234095       0.11852050 </v>
    <v>       0.48960544       0.24578188       0.62287653 </v>
    <v>       0.48691072       0.74470212       0.12035580 </v>
    <v>       0.48813464       0.74694433       0.62735396 </v>
    <v>       0.99126136       0.25108147       0.37727553 </v>
    <v>       0.00055166       0.24791333       0.86481218 </v>
    <v>       0.01517117       0.75732608       0.37528211 </v>
    <v>       0.00711193       0.75629426       0.87033712 </v>
    <v>       0.51159542       0.25930622       0.38004734 </v>
    <v>       0.49036565       0.24990511       0.87449014 </v>
    <v>       0.47680254       0.73952177       0.37774905 </v>
    <v>       0.49440400       0.74990620       0.87077398 </v>
    <v>       0.23790122       0.97902556       0.12072478 </v>
    <v>       0.25209365       0.00085267       0.62508446 </v>
    <v>       0.26760622       0.51255061       0.11530956 </v>
    <v>       0.24612599       0.49704797       0.62736315 </v>
    <v>       0.75196859       0.01128197       0.12569068 </v>
    <v>       0.74679025       0.00516532       0.62722427 </v>
    <v>       0.74449184       0.48900320       0.12352994 </v>
    <v>       0.74672425       0.49772513       0.62627790 </v>
    <v>       0.23920774       0.97918679       0.38027832 </v>
    <v>       0.24801631       0.00284351       0.86968685 </v>
    <v>       0.24797658       0.51585859       0.38187204 </v>
    <v>       0.25317214       0.49268083       0.86593927 </v>
    <v>       0.75611552       0.02241509       0.37545966 </v>
    <v>       0.74814943       0.00830809       0.87237185 </v>
    <v>       0.74256403       0.49394482       0.37918249 </v>
    <v>       0.74670238       0.49571543       0.87316071 </v>
    <v>       0.99828971       0.99840521       0.99784955 </v>
    <v>       0.00108540       0.49782433       0.99042882 </v>
    <v>       0.99914509       0.50574727       0.50168679 </v>
    <v>       0.49986614       0.99949513       0.99967982 </v>
    <v>       0.50389983       0.99712834       0.49377023 </v>
    <v>       0.49279366       0.49582755       0.50087159 </v>
    <v>       0.24842923       0.25247279       0.00379104 </v>
    <v>       0.25078353       0.74750003       0.99646720 </v>
    <v>       0.74702061       0.25249840       0.99724409 </v>
    <v>       0.74876043       0.25397827       0.50291507 </v>
    <v>       0.74612806       0.75337221       0.00946201 </v>
    <v>       0.24702475       0.22271201       0.25066895 </v>
    <v>       0.24656732       0.75002614       0.74790065 </v>
    <v>       0.99825512       0.00005615       0.74646354 </v>
    <v>       0.49594373       0.00490721       0.25014981 </v>
    <v>       0.49850005       0.00287744       0.75039780 </v>
    <v>       0.01179740       0.01565619       0.50008386 </v>
    <v>       0.50389169       0.50031558       0.99298969 </v>
    <v>       0.24879884       0.25326121       0.50046566 </v>
    <v>       0.24722085       0.75009833       0.50267298 </v>
    <v>       0.73627302       0.73973767       0.50896025 </v>
    <v>       0.24688270       0.24933790       0.74362390 </v>
    <v>       0.24873478       0.74452909       0.24742735 </v>
    <v>       0.75194212       0.24859552       0.24849667 </v>
    <v>       0.75527385       0.24376531       0.74884213 </v>
    <v>       0.75515016       0.74570905       0.24654246 </v>
    <v>       0.75281563       0.75028809       0.74278017 </v>
    <v>       0.98661760       0.98941220       0.25199757 </v>
    <v>       0.98962395       0.51002620       0.25948581 </v>
    <v>       0.99105438       0.50651071       0.74716342 </v>
    <v>       0.51518839       0.51821704       0.25112043 </v>
    <v>       0.49055074       0.50714605       0.74928647 </v>
    <v>       0.12860922       0.11114425       0.24558374 </v>
    <v>       0.11677546       0.12748882       0.74209259 </v>
    <v>       0.12787106       0.59112738       0.23183038 </v>
    <v>       0.12017321       0.63079610       0.74797552 </v>
    <v>       0.63228404       0.11126657       0.24965867 </v>
    <v>       0.61340157       0.13715590       0.75077754 </v>
    <v>       0.62495509       0.64571462       0.27299760 </v>
    <v>       0.62724973       0.62303177       0.74971768 </v>
    <v>       0.38157790       0.36616604       0.74996537 </v>
    <v>       0.37702658       0.87775370       0.24754772 </v>
    <v>       0.37967901       0.87080685       0.75052442 </v>
    <v>       0.90477535       0.37451199       0.23062396 </v>
    <v>       0.85567736       0.38538126       0.74732151 </v>
    <v>       0.84670781       0.88170761       0.26274901 </v>
    <v>       0.87455518       0.87762847       0.76584553 </v>
    <v>       0.39066081       0.13756747       0.26343508 </v>
    <v>       0.36628767       0.11558571       0.74927773 </v>
    <v>       0.37140302       0.61554518       0.24885879 </v>
    <v>       0.36840099       0.62257974       0.75277241 </v>
    <v>       0.88197144       0.12947312       0.25113086 </v>
    <v>       0.87255327       0.12486989       0.75010919 </v>
    <v>       0.87891740       0.62347953       0.23019508 </v>
    <v>       0.86846383       0.63476979       0.78168185 </v>
    <v>       0.22610456       0.30374396       0.35000285 </v>
    <v>       0.12051004       0.37802859       0.73921460 </v>
    <v>       0.11290379       0.86021939       0.24661883 </v>
    <v>       0.12727290       0.88003125       0.74681449 </v>
    <v>       0.62196506       0.37657365       0.24826156 </v>
    <v>       0.62867477       0.87830291       0.75959867 </v>
    <v>       0.37244813       0.37415121       0.99814731 </v>
    <v>       0.37763883       0.36603506       0.49845517 </v>
    <v>       0.37448904       0.87599691       0.00024604 </v>
    <v>       0.38985058       0.86704454       0.49691905 </v>
    <v>       0.87576830       0.37836767       0.00696631 </v>
    <v>       0.86997334       0.38347670       0.50383678 </v>
    <v>       0.87093786       0.86903339       0.98048642 </v>
    <v>       0.12658872       0.12380223       0.01868764 </v>
    <v>       0.12624086       0.13568746       0.48334503 </v>
    <v>       0.12395736       0.62035773       0.00622755 </v>
    <v>       0.11569964       0.63136776       0.50156078 </v>
    <v>       0.62256187       0.12507930       0.00110207 </v>
    <v>       0.61995560       0.13296405       0.49263360 </v>
    <v>       0.63424201       0.63135725       0.98028903 </v>
    <v>       0.61199853       0.63149826       0.49457301 </v>
    <v>       0.11800488       0.37658186       0.02381941 </v>
    <v>       0.12105006       0.38478352       0.51330847 </v>
    <v>       0.12297884       0.87302636       0.00097127 </v>
    <v>       0.12449547       0.87905842       0.50293105 </v>
    <v>       0.62643331       0.37598655       0.00550006 </v>
    <v>       0.62688056       0.38211038       0.49373550 </v>
    <v>       0.62674270       0.87425036       0.97636916 </v>
    <v>       0.66598857       0.88975721       0.49398578 </v>
    <v>       0.37334565       0.12625961       0.02061631 </v>
    <v>       0.37811989       0.11290101       0.47458201 </v>
    <v>       0.37789832       0.62633272       0.99019285 </v>
    <v>       0.36702013       0.61594774       0.50524881 </v>
    <v>       0.87378580       0.12542152       0.99389738 </v>
    <v>       0.87024824       0.12712094       0.50497338 </v>
    <v>       0.87800716       0.62377159       0.01281745 </v>
    <v>       0.86593723       0.65231185       0.46586736 </v>
    <v>       0.98084454       0.98464448       0.12208988 </v>
    <v>       0.98258219       0.98793553       0.62198782 </v>
    <v>       0.97237355       0.52767372       0.62323758 </v>
    <v>       0.52196814       0.97602196       0.12851755 </v>
    <v>       0.50463419       0.99807552       0.62029483 </v>
    <v>       0.50649160       0.51052218       0.12499102 </v>
    <v>       0.50964926       0.48800952       0.62696086 </v>
    <v>       0.98621165       0.98385875       0.38117221 </v>
    <v>       0.01511584       0.01115697       0.87551536 </v>
    <v>       0.00504868       0.48914114       0.37558254 </v>
    <v>       0.01196528       0.48599289       0.87603416 </v>
    <v>       0.53067307       0.96398679       0.36503418 </v>
    <v>       0.48652124       0.01293395       0.87757682 </v>
    <v>       0.48520535       0.48979021       0.37256230 </v>
    <v>       0.51574682       0.47864209       0.86795566 </v>
    <v>       0.23668262       0.24733097       0.88355068 </v>
    <v>       0.24490909       0.74632373       0.37319998 </v>
    <v>       0.24326434       0.75357909       0.87419470 </v>
    <v>       0.75755337       0.25991632       0.37389307 </v>
    <v>       0.73891767       0.26139918       0.87325385 </v>
    <v>       0.26429286       0.29288427       0.14633773 </v>
    <v>       0.25758505       0.23382243       0.61934582 </v>
    <v>       0.25359823       0.74888821       0.12131508 </v>
    <v>       0.25498604       0.75255209       0.62620222 </v>
    <v>       0.74935365       0.24613304       0.12298709 </v>
    <v>       0.72904919       0.26050442       0.62660417 </v>
    <v>       0.72022315       0.77214193       0.12194826 </v>
    <v>       0.77702514       0.75242737       0.62383307 </v>
   </varray>
  </structure>
  <varray name="forces" >
   <v>      -0.00429842       0.00628741       0.00443193 </v>
   <v>       0.00820790      -0.00565396      -0.00352864 </v>
   <v>       0.00408719       0.00676024      -0.01088405 </v>
   <v>       0.01069427      -0.00638468      -0.01211778 </v>
   <v>      -0.00282222      -0.00283861       0.00576702 </v>
   <v>      -0.00696698      -0.00448416       0.00468579 </v>
   <v>      -0.00560786      -0.00523314       0.00180965 </v>
   <v>       0.00087942       0.00829218       0.00347868 </v>
   <v>      -0.01248849      -0.00268682       0.00224307 </v>
   <v>       0.00613905      -0.00104988      -0.00723331 </v>
   <v>      -0.00199632      -0.01222800       0.00483119 </v>
   <v>      -0.00366984       0.00530066       0.00628437 </v>
   <v>       0.01050385      -0.00482067      -0.00781936 </v>
   <v>      -0.00318851      -0.00123690       0.00485868 </v>
   <v>       0.00304934      -0.00718635       0.00508526 </v>
   <v>       0.00408843       0.00045173       0.00238585 </v>
   <v>      -0.00009379       0.00557118       0.00002252 </v>
   <v>       0.00301681      -0.00223440      -0.00617461 </v>
   <v>       0.00081439       0.00786373      -0.00285502 </v>
   <v>       0.00210991       0.00067603       0.00747899 </v>
   <v>       0.00227462       0.01074559      -0.01210048 </v>
   <v>      -0.01151672      -0.00544671      -0.00152047 </v>
   <v>       0.00166312      -0.00910768      -0.00278628 </v>
   <v>      -0.00112554       0.00539366      -0.00251004 </v>
   <v>      -0.00233149       0.00679914       0.00154514 </v>
   <v>       0.00083715      -0.00108865       0.00674890 </v>
   <v>       0.00055192      -0.00171368       0.00390480 </v>
   <v>       0.00102659       0.00531488      -0.00788419 </v>
   <v>       0.01265034      -0.00138996       0.00177435 </v>
   <v>       0.00272260       0.00180944      -0.00565160 </v>
   <v>       0.00446666      -0.00054750      -0.00407962 </v>
   <v>      -0.00255942       0.01699944       0.00775963 </v>
   <v>       0.00664457      -0.00190848      -0.00361469 </v>
   <v>      -0.00429987       0.00771365      -0.00775814 </v>
   <v>       0.02317791       0.00695473       0.01190700 </v>
   <v>       0.01688790      -0.00608889      -0.02259143 </v>
   <v>      -0.00785278      -0.01696849       0.01040356 </v>
   <v>      -0.02902874       0.02424898       0.00245126 </v>
   <v>      -0.02595310      -0.01116967       0.00086608 </v>
   <v>      -0.00475203       0.00579535      -0.00140650 </v>
   <v>       0.00292844       0.00017048       0.00193729 </v>
   <v>       0.00472421      -0.01838371      -0.00906775 </v>
   <v>       0.00129425      -0.03615350      -0.17468464 </v>
   <v>      -0.11395614      -0.04607342      -0.00428511 </v>
   <v>       0.02795883      -0.02552194      -0.00243956 </v>
   <v>      -0.01412939       0.01267809       0.01088103 </v>
   <v>       0.00484236      -0.01251134      -0.00125709 </v>
   <v>      -0.01447942      -0.01786176       0.00411604 </v>
   <v>       0.00024845      -0.00351672      -0.01086038 </v>
   <v>       0.00818021       0.00159301       0.00118476 </v>
   <v>       0.00638012       0.00457391      -0.00239447 </v>
   <v>       0.00591988      -0.01142999      -0.00088216 </v>
   <v>      -0.00859866       0.02960291       0.00241553 </v>
   <v>      -0.00872141      -0.00138824      -0.00767668 </v>
   <v>      -0.01280623      -0.00520253       0.00984188 </v>
   <v>       0.01931523       0.00613985      -0.00580296 </v>
   <v>       0.02260751      -0.01624421       0.00597089 </v>
   <v>       0.01752061       0.02758455      -0.00038405 </v>
   <v>       0.00154166      -0.01009612       0.01173978 </v>
   <v>       0.00889158       0.00537903      -0.00160384 </v>
   <v>      -0.00864546      -0.01231938      -0.00734556 </v>
   <v>      -0.00166379       0.00518049       0.01110609 </v>
   <v>       0.00367146       0.00333019      -0.00542227 </v>
   <v>      -0.02364493       0.01950138      -0.00497171 </v>
   <v>       0.05410964       0.05270277       0.00912964 </v>
   <v>       0.00690164      -0.01036114      -0.00149439 </v>
   <v>       0.01490616       0.00486145       0.00336894 </v>
   <v>      -0.00447624       0.00613208       0.00303461 </v>
   <v>      -0.01381848      -0.00442946       0.00737769 </v>
   <v>       0.00890762      -0.00007572      -0.00553163 </v>
   <v>      -0.01184807      -0.00647215      -0.00602863 </v>
   <v>      -0.00204645      -0.00420696      -0.00454064 </v>
   <v>       0.00130946      -0.00272490      -0.00784349 </v>
   <v>       0.01851434       0.01101460       0.00403979 </v>
   <v>      -0.00597941       0.01101719      -0.00342603 </v>
   <v>       0.00045957       0.01389035       0.00060228 </v>
   <v>      -0.00911327      -0.00481135      -0.00602312 </v>
   <v>      -0.01827824      -0.00825861      -0.01140509 </v>
   <v>      -0.00640175      -0.00227829       0.00324915 </v>
   <v>       0.04005184      -0.02153278      -0.01483210 </v>
   <v>       0.00202566       0.01261276       0.00156272 </v>
   <v>       0.00355641      -0.00173188      -0.00276872 </v>
   <v>       0.00671340      -0.01055565       0.00012118 </v>
   <v>       0.00395394       0.01085226       0.00288961 </v>
   <v>      -0.01240331       0.02010436      -0.00370246 </v>
   <v>       0.00048666      -0.00120171      -0.00522485 </v>
   <v>      -0.00132035      -0.00589659      -0.00475781 </v>
   <v>       0.02406805       0.00202284       0.01479462 </v>
[...]
       <r>   -17.0641     0.0000    32.0000 </r>
       <r>   -16.9105     0.0000    32.0000 </r>
       <r>   -16.7569     0.0000    32.0000 </r>
       <r>   -16.6033     0.0000    32.0000 </r>
       <r>   -16.4497     0.0000    32.0000 </r>
       <r>   -16.2961     0.0000    32.0000 </r>
       <r>   -16.1425     0.0000    32.0000 </r>
       <r>   -15.9888     0.0000    32.0000 </r>
       <r>   -15.8352     0.0000    32.0000 </r>
       <r>   -15.6816     0.0000    32.0000 </r>
       <r>   -15.5280     0.1246    32.0191 </r>
       <r>   -15.3744     6.3104    32.9885 </r>
       <r>   -15.2208     0.0773    33.0004 </r>
       <r>   -15.0672     7.4380    34.1429 </r>
       <r>   -14.9136    38.8482    40.1104 </r>
       <r>   -14.7600    46.0591    47.1856 </r>
       <r>   -14.6063    41.5956    53.5752 </r>
       <r>   -14.4527    35.9481    59.0972 </r>
       <r>   -14.2991    39.4693    65.1602 </r>
       <r>   -14.1455    69.6288    75.8559 </r>
       <r>   -13.9919    90.5871    89.7712 </r>
       <r>   -13.8383    82.0943   102.3818 </r>
       <r>   -13.6847    62.8467   112.0357 </r>
       <r>   -13.5311    29.1090   116.5072 </r>
       <r>   -13.3775    21.2330   119.7689 </r>
       <r>   -13.2238     1.5047   120.0000 </r>
       <r>   -13.0702     0.0000   120.0000 </r>
       <r>   -12.9166     0.0007   120.0001 </r>
       <r>   -12.7630     8.5175   121.3085 </r>
       <r>   -12.6094    74.5791   132.7647 </r>
       <r>   -12.4558   130.7608   152.8510 </r>
       <r>   -12.3022   115.7284   170.6282 </r>
       <r>   -12.1486   100.9476   186.1349 </r>
       <r>   -11.9949    86.0099   199.3470 </r>
       <r>   -11.8413    64.7016   209.2859 </r>
       <r>   -11.6877    34.5958   214.6003 </r>
       <r>   -11.5341     9.1103   215.9997 </r>
       <r>   -11.3805     0.0019   216.0000 </r>
       <r>   -11.2269     0.0000   216.0000 </r>
       <r>   -11.0733     0.0000   216.0000 </r>
       <r>   -10.9197     0.0000   216.0000 </r>
       <r>   -10.7661     0.0000   216.0000 </r>
       <r>   -10.6124     0.0000   216.0000 </r>
       <r>   -10.4588     0.0000   216.0000 </r>
       <r>   -10.3052     0.0000   216.0000 </r>
       <r>   -10.1516     0.0000   216.0000 </r>
       <r>    -9.9980     0.0000   216.0000 </r>
       <r>    -9.8444     0.0000   216.0000 </r>
       <r>    -9.6908     0.0000   216.0000 </r>
       <r>    -9.5372     0.0000   216.0000 </r>
       <r>    -9.3836     0.0000   216.0000 </r>
       <r>    -9.2299     0.0000   216.0000 </r>
       <r>    -9.0763     0.0000   216.0000 </r>
       <r>    -8.9227     0.0000   216.0000 </r>
       <r>    -8.7691     0.0000   216.0000 </r>
       <r>    -8.6155     0.0000   216.0000 </r>
       <r>    -8.4619     0.0000   216.0000 </r>
       <r>    -8.3083     0.0000   216.0000 </r>
       <r>    -8.1547     0.0000   216.0000 </r>
       <r>    -8.0011     0.0000   216.0000 </r>
       <r>    -7.8474     0.0000   216.0000 </r>
       <r>    -7.6938     0.0000   216.0000 </r>
       <r>    -7.5402     0.0000   216.0000 </r>
       <r>    -7.3866     0.0000   216.0000 </r>
       <r>    -7.2330     0.0000   216.0000 </r>
       <r>    -7.0794     0.0000   216.0000 </r>
       <r>    -6.9258     0.0000   216.0000 </r>
       <r>    -6.7722     0.0000   216.0000 </r>
       <r>    -6.6186     0.0000   216.0000 </r>
       <r>    -6.4649     0.0000   216.0000 </r>
       <r>    -6.3113     0.0000   216.0000 </r>
       <r>    -6.1577     0.0000   216.0000 </r>
       <r>    -6.0041     0.0000   216.0000 </r>
       <r>    -5.8505     0.0000   216.0000 </r>
       <r>    -5.6969     0.0000   216.0000 </r>
       <r>    -5.5433     0.0000   216.0000 </r>
       <r>    -5.3897     0.0000   216.0000 </r>
       <r>    -5.2360     0.0000   216.0000 </r>
       <r>    -5.0824     0.0000   216.0000 </r>
       <r>    -4.9288     0.0000   216.0000 </r>
       <r>    -4.7752     0.0000   216.0000 </r>
       <r>    -4.6216     0.0000   216.0000 </r>
       <r>    -4.4680     0.0000   216.0000 </r>
       <r>    -4.3144     0.0000   216.0000 </r>
       <r>    -4.1608     0.0000   216.0000 </r>
       <r>    -4.0072     0.0000   216.0000 </r>
       <r>    -3.8535     0.0000   216.0000 </r>
       <r>    -3.6999     0.0000   216.0000 </r>
       <r>    -3.5463     0.0000   216.0000 </r>
       <r>    -3.3927     0.0000   216.0000 </r>
       <r>    -3.2391     0.0000   216.0000 </r>
       <r>    -3.0855     0.0000   216.0000 </r>
       <r>    -2.9319     0.0000   216.0000 </r>
       <r>    -2.7783     0.0000   216.0000 </r>
       <r>    -2.6247     0.0070   216.0011 </r>
       <r>    -2.4710     5.3140   216.8174 </r>
       <r>    -2.3174     8.7646   218.1637 </r>
       <r>    -2.1638    19.6250   221.1783 </r>
       <r>    -2.0102    25.5020   225.0957 </r>
       <r>    -1.8566    27.2809   229.2864 </r>
       <r>    -1.7030    36.2000   234.8471 </r>
       <r>    -1.5494    43.6551   241.5530 </r>
       <r>    -1.3958    46.9301   248.7620 </r>
       <r>    -1.2422    54.2161   257.0902 </r>
       <r>    -1.0885    68.1401   267.5573 </r>
       <r>    -0.9349    74.8352   279.0529 </r>
       <r>    -0.7813    78.5722   291.1225 </r>
       <r>    -0.6277    94.9249   305.7040 </r>
       <r>    -0.4741   101.0268   321.2229 </r>
       <r>    -0.3205    83.8526   334.1036 </r>
       <r>    -0.1669    59.3732   343.2240 </r>
       <r>    -0.0133    51.0186   351.0610 </r>
       <r>     0.1404    56.6054   359.7562 </r>
       <r>     0.2940    57.0470   368.5193 </r>
       <r>     0.4476    50.8543   376.3311 </r>
       <r>     0.6012    55.9441   384.9247 </r>
       <r>     0.7548    53.2690   393.1075 </r>
       <r>     0.9084    53.6116   401.3428 </r>
       <r>     1.0620    55.3779   409.8495 </r>
       <r>     1.2156    63.7077   419.6357 </r>
       <r>     1.3692    73.7510   430.9647 </r>
       <r>     1.5229    73.1787   442.2058 </r>
       <r>     1.6765    77.4921   454.1094 </r>
       <r>     1.8301    64.2913   463.9853 </r>
       <r>     1.9837    41.9777   470.4336 </r>
       <r>     2.1373    33.1275   475.5223 </r>
       <r>     2.2909    21.1677   478.7739 </r>
       <r>     2.4445    14.2536   480.9634 </r>
       <r>     2.5981     0.2379   481.0000 </r>
       <r>     2.7517     0.0000   481.0000 </r>
       <r>     2.9054     0.0000   481.0000 </r>
       <r>     3.0590     0.0000   481.0000 </r>
       <r>     3.2126     0.0000   481.0000 </r>
       <r>     3.3662     0.0000   481.0000 </r>
       <r>     3.5198     0.0000   481.0000 </r>
       <r>     3.6734     0.0000   481.0000 </r>
       <r>     3.8270     0.0000   481.0000 </r>
       <r>     3.9806     0.0000   481.0000 </r>
       <r>     4.1342     0.0000   481.0000 </r>
       <r>     4.2879     0.0000   481.0000 </r>
       <r>     4.4415     4.6939   481.7210 </r>
       <r>     4.5951    41.8048   488.1427 </r>
       <r>     4.7487    55.3509   496.6453 </r>
       <r>     4.9023    50.7708   504.4442 </r>
       <r>     5.0559    63.6835   514.2267 </r>
       <r>     5.2095    63.6842   524.0093 </r>
       <r>     5.3631    69.8831   534.7442 </r>
       <r>     5.5167    81.9466   547.3321 </r>
       <r>     5.6704    80.4096   559.6840 </r>
       <r>     5.8240    57.6348   568.5373 </r>
       <r>     5.9776    69.1048   579.1526 </r>
       <r>     6.1312    69.8117   589.8765 </r>
       <r>     6.2848    53.1709   598.0441 </r>
       <r>     6.4384    39.2450   604.0726 </r>
       <r>     6.5920    23.7490   607.7207 </r>
       <r>     6.7456    22.5447   611.1838 </r>
       <r>     6.8993    12.6635   613.1291 </r>
       <r>     7.0529    22.1082   616.5252 </r>
       <r>     7.2065    14.5834   618.7654 </r>
       <r>     7.3601    20.1481   621.8603 </r>
       <r>     7.5137    17.8306   624.5993 </r>
       <r>     7.6673    17.0365   627.2163 </r>
       <r>     7.8209    16.5463   629.7580 </r>
       <r>     7.9745    18.5045   632.6005 </r>
       <r>     8.1281    24.7831   636.4075 </r>
       <r>     8.2818    20.2754   639.5220 </r>
       <r>     8.4354    22.2529   642.9403 </r>
       <r>     8.5890    25.0555   646.7891 </r>
       <r>     8.7426    28.1443   651.1124 </r>
       <r>     8.8962    36.5371   656.7249 </r>
       <r>     9.0498    37.8374   662.5372 </r>
       <r>     9.2034    35.9035   668.0524 </r>
       <r>     9.3570    39.9731   674.1927 </r>
       <r>     9.5106    45.1208   681.1238 </r>
       <r>     9.6643    51.8223   689.0843 </r>
       <r>     9.8179    55.3561   697.5876 </r>
       <r>     9.9715    60.6001   706.8965 </r>
       <r>    10.1251    57.9452   715.7975 </r>
       <r>    10.2787    54.1509   724.1157 </r>
       <r>    10.4323    53.7651   732.3746 </r>
       <r>    10.5859    56.1579   741.0011 </r>
       <r>    10.7395    51.9010   748.9737 </r>
       <r>    10.8931    48.9527   756.4934 </r>
       <r>    11.0468    53.5045   764.7123 </r>
       <r>    11.2004    21.3917   767.9983 </r>
       <r>    11.3540     0.0112   768.0000 </r>
       <r>    11.5076     0.0000   768.0000 </r>
       <r>    11.6612     0.0000   768.0000 </r>
       <r>    11.8148     0.0000   768.0000 </r>
       <r>    11.9684     0.0000   768.0000 </r>
       <r>    12.1220     0.0000   768.0000 </r>
       <r>    12.2756     0.0000   768.0000 </r>
       <r>    12.4293     0.0000   768.0000 </r>
       <r>    12.5829     0.0000   768.0000 </r>
       <r>    12.7365     0.0000   768.0000 </r>
       <r>    12.8901     0.0000   768.0000 </r>
       <r>    13.0437     0.0000   768.0000 </r>
       <r>    13.1973     0.0000   768.0000 </r>
      </set>
     </set>
    </array>
   </total>
  </dos>
 </calculation>
 <structure name="finalpos" >
  <crystal>
   <varray name="basis" >
    <v>      11.24399952       0.04261920       0.01429839 </v>
    <v>       0.04251523      11.25005456      -0.01515015 </v>
    <v>       0.02106304      -0.02159116      15.84318719 </v>
   </varray>
   <i name="volume">   2004.05779635 </i>
   <varray name="rec_basis" >
    <v>       0.08893775      -0.00033627      -0.00011870 </v>
    <v>      -0.00033708       0.08888990       0.00012159 </v>
    <v>      -0.00008059       0.00008531       0.06311884 </v>
   </varray>
  </crystal>
  <varray name="positions" >
   <v>       0.98494641       0.23305651       0.12064674 </v>
   <v>       0.00388785       0.25694511       0.62574644 </v>
   <v>       0.00844151       0.75202869       0.12396639 </v>
   <v>       0.01005036       0.75340301       0.62581877 </v>
   <v>       0.51039546       0.26221177       0.11875156 </v>
   <v>       0.48930950       0.24560545       0.62294596 </v>
   <v>       0.48692986       0.74455881       0.12066489 </v>
   <v>       0.48826691       0.74716957       0.62753335 </v>
   <v>       0.99062584       0.25113105       0.37761969 </v>
   <v>       0.00093355       0.24803412       0.86437385 </v>
   <v>       0.01535464       0.75693405       0.37513536 </v>
   <v>       0.00717800       0.75664685       0.87033010 </v>
   <v>       0.51212367       0.25921653       0.37962547 </v>
   <v>       0.49004130       0.24984343       0.87450096 </v>
   <v>       0.47699030       0.73944559       0.37770233 </v>
   <v>       0.49430089       0.74980720       0.87084945 </v>
   <v>       0.23825277       0.97913433       0.12098735 </v>
   <v>       0.25217156       0.00078420       0.62476456 </v>
   <v>       0.26763973       0.51289971       0.11537827 </v>
   <v>       0.24650259       0.49666307       0.62751366 </v>
   <v>       0.75227070       0.01152795       0.12531589 </v>
   <v>       0.74606317       0.00504748       0.62743507 </v>
   <v>       0.74455906       0.48882856       0.12359402 </v>
   <v>       0.74665811       0.49796525       0.62595858 </v>
   <v>       0.23913441       0.97902068       0.38028667 </v>
   <v>       0.24781364       0.00286088       0.86975994 </v>
   <v>       0.24816887       0.51556594       0.38184993 </v>
   <v>       0.25321060       0.49288488       0.86585064 </v>
   <v>       0.75628973       0.02237926       0.37539098 </v>
   <v>       0.74819678       0.00842916       0.87233129 </v>
   <v>       0.74271904       0.49405533       0.37915187 </v>
   <v>       0.74630923       0.49566910       0.87319618 </v>
   <v>       0.99850399       0.99877783       0.99788596 </v>
   <v>       0.00105401       0.49784337       0.99046582 </v>
   <v>       0.99941290       0.50561688       0.50169986 </v>
   <v>       0.49999016       0.99943588       0.99981146 </v>
   <v>       0.50375821       0.99717870       0.49367428 </v>
   <v>       0.49280574       0.49575155       0.50077220 </v>
   <v>       0.24834095       0.25251676       0.00400682 </v>
   <v>       0.25086644       0.74757544       0.99645342 </v>
   <v>       0.74701030       0.25255511       0.99720331 </v>
   <v>       0.74861026       0.25393162       0.50302394 </v>
   <v>       0.74601739       0.75323179       0.00934455 </v>
   <v>       0.24692338       0.22271991       0.25115263 </v>
   <v>       0.24634868       0.74980286       0.74774288 </v>
   <v>       0.99801007       0.00007436       0.74635335 </v>
   <v>       0.49631678       0.00466094       0.24996801 </v>
   <v>       0.49815178       0.00283036       0.75055670 </v>
   <v>       0.01160522       0.01537249       0.50007944 </v>
   <v>       0.50382751       0.50016122       0.99309522 </v>
   <v>       0.24907645       0.25306435       0.49974649 </v>
   <v>       0.24744275       0.74987570       0.50248796 </v>
   <v>       0.73618480       0.73997141       0.50890693 </v>
   <v>       0.24687099       0.24931676       0.74323847 </v>
   <v>       0.24851106       0.74427185       0.24741178 </v>
   <v>       0.75231564       0.24863021       0.24843316 </v>
   <v>       0.75540640       0.24381683       0.74876312 </v>
   <v>       0.75550662       0.74596505       0.24643689 </v>
   <v>       0.75266681       0.75011647       0.74300176 </v>
   <v>       0.98679661       0.98945645       0.25203008 </v>
   <v>       0.98976056       0.51007793       0.25943161 </v>
   <v>       0.99081975       0.50646375       0.74719004 </v>
   <v>       0.51540522       0.51825666       0.25107750 </v>
   <v>       0.49045267       0.50723696       0.74917756 </v>
   <v>       0.12880191       0.11131347       0.24635348 </v>
   <v>       0.11705760       0.12706090       0.74187748 </v>
   <v>       0.12836353       0.59119081       0.23228130 </v>
   <v>       0.11993238       0.63073627       0.74811807 </v>
   <v>       0.63258024       0.11132782       0.24990236 </v>
   <v>       0.61394488       0.13634950       0.75084769 </v>
   <v>       0.62510583       0.64583331       0.27263835 </v>
   <v>       0.62715612       0.62281000       0.74978286 </v>
   <v>       0.38136292       0.36622633       0.74962984 </v>
   <v>       0.37740111       0.87762331       0.24739340 </v>
   <v>       0.37895634       0.87124576       0.75030666 </v>
   <v>       0.90456841       0.37492525       0.23038186 </v>
   <v>       0.85531953       0.38564432       0.74729160 </v>
   <v>       0.84639077       0.88235802       0.26226576 </v>
   <v>       0.87413500       0.87772645       0.76596971 </v>
   <v>       0.39104334       0.13747475       0.26180097 </v>
   <v>       0.36667232       0.11636879       0.74937791 </v>
   <v>       0.37169077       0.61565492       0.24880501 </v>
   <v>       0.36835475       0.62261204       0.75269182 </v>
   <v>       0.88260404       0.12994030       0.25127584 </v>
   <v>       0.87290406       0.12530594       0.74992473 </v>
   <v>       0.87937788       0.62384276       0.23017841 </v>
   <v>       0.86827531       0.63480792       0.78203092 </v>
   <v>       0.22772783       0.30239219       0.35146975 </v>
   <v>       0.12029663       0.37774808       0.73918066 </v>
   <v>       0.11296791       0.86020454       0.24668414 </v>
   <v>       0.12663208       0.87961600       0.74670921 </v>
   <v>       0.62250613       0.37691081       0.24805020 </v>
   <v>       0.62793190       0.87784207       0.75994235 </v>
   <v>       0.37271368       0.37373318       0.99843827 </v>
   <v>       0.37813044       0.36587763       0.49856549 </v>
   <v>       0.37473307       0.87576214       0.00058232 </v>
   <v>       0.38996388       0.86697193       0.49698524 </v>
   <v>       0.87604718       0.37795021       0.00692455 </v>
   <v>       0.87018804       0.38334981       0.50396684 </v>
   <v>       0.87122569       0.86888711       0.98097679 </v>
   <v>       0.12647303       0.12419557       0.01881099 </v>
   <v>       0.12558463       0.13582168       0.48368081 </v>
   <v>       0.12350084       0.62092092       0.00627889 </v>
   <v>       0.11579742       0.63127728       0.50107327 </v>
   <v>       0.62207148       0.12539666       0.00115248 </v>
   <v>       0.61968359       0.13312650       0.49267729 </v>
   <v>       0.63387321       0.63146466       0.98037403 </v>
   <v>       0.61239869       0.63124076       0.49411518 </v>
   <v>       0.11830712       0.37712784       0.02418677 </v>
   <v>       0.12136884       0.38500304       0.51325569 </v>
   <v>       0.12340000       0.87351225       0.00054836 </v>
   <v>       0.12482397       0.87913386       0.50297771 </v>
   <v>       0.62672634       0.37628909       0.00538159 </v>
   <v>       0.62708188       0.38224435       0.49380942 </v>
   <v>       0.62693591       0.87445853       0.97617369 </v>
   <v>       0.66561495       0.88984881       0.49393284 </v>
   <v>       0.37307618       0.12605830       0.02160065 </v>
   <v>       0.37770296       0.11294654       0.47429073 </v>
   <v>       0.37762122       0.62596269       0.99026321 </v>
   <v>       0.36714509       0.61579804       0.50481401 </v>
   <v>       0.87351110       0.12516935       0.99416809 </v>
   <v>       0.86999152       0.12710863       0.50497565 </v>
   <v>       0.87763184       0.62333073       0.01312019 </v>
   <v>       0.86611472       0.65277689       0.46589459 </v>
   <v>       0.98147621       0.98486794       0.12219963 </v>
   <v>       0.98200713       0.98771906       0.62190829 </v>
   <v>       0.97239188       0.52811361       0.62317458 </v>
   <v>       0.52310515       0.97548808       0.12861294 </v>
   <v>       0.50407444       0.99836293       0.62031254 </v>
   <v>       0.50631141       0.51027950       0.12497341 </v>
   <v>       0.50942224       0.48851601       0.62682855 </v>
   <v>       0.98587630       0.98317349       0.38136814 </v>
   <v>       0.01480735       0.01153302       0.87549299 </v>
   <v>       0.00505599       0.48841892       0.37552059 </v>
   <v>       0.01235554       0.48558012       0.87610470 </v>
   <v>       0.53027805       0.96432768       0.36508288 </v>
   <v>       0.48546599       0.01314668       0.87781209 </v>
   <v>       0.48549112       0.48956402       0.37237052 </v>
   <v>       0.51531330       0.47846928       0.86792002 </v>
   <v>       0.23675417       0.24713389       0.88383122 </v>
   <v>       0.24512497       0.74635748       0.37314043 </v>
   <v>       0.24356664       0.75341615       0.87414440 </v>
   <v>       0.75755460       0.26009214       0.37392497 </v>
   <v>       0.73858232       0.26102341       0.87319692 </v>
   <v>       0.26333544       0.29409369       0.14721296 </v>
   <v>       0.25744265       0.23388851       0.61899353 </v>
   <v>       0.25341144       0.74895119       0.12132185 </v>
   <v>       0.25476853       0.75205525       0.62605492 </v>
   <v>       0.74937108       0.24611069       0.12296921 </v>
   <v>       0.72868617       0.26052057       0.62666298 </v>
   <v>       0.71995269       0.77225283       0.12211613 </v>
   <v>       0.77601106       0.75239522       0.62399118 </v>
  </varray>
 </structure>
</modeling>
