       N       E                     dE             d eps       ncg     rms          rms(c)
DAV:   1    -0.112143682511E+04   -0.11214E+04   -0.13433E-01  6272   0.839E-01    0.164E-02
RMM:   2    -0.112143682709E+04   -0.19782E-05   -0.12145E-05  3220   0.771E-03    0.137E-02
RMM:   3    -0.112143682784E+04   -0.74472E-06   -0.39162E-06  2278   0.423E-03    0.764E-03
RMM:   4    -0.112143682947E+04   -0.16361E-05   -0.13483E-06  1856   0.284E-03    0.471E-03
RMM:   5    -0.112143682967E+04   -0.19734E-06   -0.83229E-07  1680   0.237E-03    0.388E-03
RMM:   6    -0.112143682969E+04   -0.15920E-07   -0.12663E-07   840   0.178E-03    0.275E-03
RMM:   7    -0.112143682972E+04   -0.32436E-07   -0.36098E-08   674   0.170E-03    0.137E-03
RMM:   8    -0.112143682976E+04   -0.36584E-07   -0.13451E-08   642   0.169E-03
   1 F= -.11214368E+04 E0= -.11214368E+04  d E =-.112144E+04  mag=    40.0000
       N       E                     dE             d eps       ncg     rms          rms(c)
DAV:   1    -0.112143725116E+04   -0.42144E-03   -0.29979E+00  6160   0.204E+00    0.756E-01
RMM:   2    -0.112144343914E+04   -0.61880E-02   -0.97551E-02  6160   0.429E-01    0.735E-01
RMM:   3    -0.112144305967E+04    0.37947E-03   -0.57476E-03  6694   0.127E-01    0.447E-01
RMM:   4    -0.112144226444E+04    0.79523E-03   -0.17397E-03  6261   0.501E-02    0.255E-01
RMM:   5    -0.112144206592E+04    0.19852E-03   -0.93246E-04  5804   0.361E-02    0.836E-02
RMM:   6    -0.112144205409E+04    0.11829E-04   -0.87159E-05  4040   0.143E-02    0.555E-02
RMM:   7    -0.112144205461E+04   -0.52109E-06   -0.33817E-05  3643   0.826E-03    0.372E-02
RMM:   8    -0.112144205623E+04   -0.16199E-05   -0.21851E-05  3578   0.603E-03
   2 F= -.11214421E+04 E0= -.11214421E+04  d E =-.522647E-02  mag=    40.0000
       N       E                     dE             d eps       ncg     rms          rms(c)
DAV:   1    -0.112144259963E+04   -0.54502E-03   -0.23088E-01  6576   0.566E-01    0.216E-01
RMM:   2    -0.112144306195E+04   -0.46232E-03   -0.74188E-03  6162   0.118E-01    0.205E-01
RMM:   3    -0.112144302624E+04    0.35711E-04   -0.34443E-04  4736   0.352E-02    0.126E-01
RMM:   4    -0.112144296986E+04    0.56374E-04   -0.11055E-04  3622   0.151E-02    0.714E-02
RMM:   5    -0.112144295177E+04    0.18098E-04   -0.78002E-05  3519   0.110E-02    0.309E-02
RMM:   6    -0.112144295235E+04   -0.57853E-06   -0.15058E-05  3233   0.660E-03    0.165E-02
RMM:   7    -0.112144295239E+04   -0.41997E-07   -0.59356E-06  2620   0.311E-03    0.118E-02
RMM:   8    -0.112144295219E+04    0.20019E-06   -0.26448E-06  2247   0.298E-03
   3 F= -.11214430E+04 E0= -.11214430E+04  d E =-.612243E-02  mag=    40.0000
       N       E                     dE             d eps       ncg     rms          rms(c)
DAV:   1    -0.112144316080E+04   -0.20841E-03   -0.24105E+00  6192   0.185E+00    0.514E-01
RMM:   2    -0.112144911345E+04   -0.59527E-02   -0.62481E-02  6193   0.331E-01    0.341E-01
RMM:   3    -0.112144924877E+04   -0.13532E-03   -0.32330E-03  6219   0.108E-01    0.208E-01
RMM:   4    -0.112144907904E+04    0.16972E-03   -0.88191E-04  6444   0.342E-02    0.105E-01
RMM:   5    -0.112144904249E+04    0.36557E-04   -0.27170E-04  4313   0.201E-02    0.554E-02
RMM:   6    -0.112144904652E+04   -0.40364E-05   -0.59115E-05  3617   0.125E-02    0.339E-02
RMM:   7    -0.112144904931E+04   -0.27895E-05   -0.30340E-05  3526   0.764E-03    0.171E-02
RMM:   8    -0.112144905044E+04   -0.11255E-05   -0.17216E-05  3384   0.638E-03
   4 F= -.11214491E+04 E0= -.11214491E+04  d E =-.609825E-02  mag=    40.0000
       N       E                     dE             d eps       ncg     rms          rms(c)
DAV:   1    -0.112144513471E+04    0.39146E-02   -0.23664E+00  6192   0.183E+00    0.508E-01
RMM:   2    -0.112145102652E+04   -0.58918E-02   -0.61814E-02  6200   0.329E-01    0.338E-01
RMM:   3    -0.112145116272E+04   -0.13620E-03   -0.32761E-03  6267   0.108E-01    0.206E-01
RMM:   4    -0.112145099988E+04    0.16284E-03   -0.91285E-04  6639   0.341E-02    0.104E-01
RMM:   5    -0.112145096385E+04    0.36037E-04   -0.29268E-04  4484   0.202E-02    0.527E-02
RMM:   6    -0.112145096808E+04   -0.42307E-05   -0.65487E-05  3630   0.127E-02    0.347E-02
RMM:   7    -0.112145097113E+04   -0.30528E-05   -0.34014E-05  3537   0.797E-03    0.173E-02
RMM:   8    -0.112145097250E+04   -0.13733E-05   -0.20061E-05  3410   0.685E-03
   5 F= -.11214510E+04 E0= -.11214510E+04  d E =-.802032E-02  mag=    40.0000
       N       E                     dE             d eps       ncg     rms          rms(c)
DAV:   1    -0.112145018113E+04    0.79000E-03   -0.16984E+00  6272   0.154E+00    0.476E-01
RMM:   2    -0.112145511476E+04   -0.49336E-02   -0.44338E-02  6299   0.276E-01    0.325E-01
RMM:   3    -0.112145535888E+04   -0.24413E-03   -0.23475E-03  6376   0.865E-02    0.181E-01
RMM:   4    -0.112145524463E+04    0.11425E-03   -0.56038E-04  5681   0.280E-02    0.970E-02
RMM:   5    -0.112145521774E+04    0.26892E-04   -0.20870E-04  3908   0.188E-02    0.469E-02
RMM:   6    -0.112145522301E+04   -0.52693E-05   -0.58192E-05  3576   0.128E-02    0.397E-02
RMM:   7    -0.112145522531E+04   -0.23010E-05   -0.30504E-05  3500   0.766E-03    0.160E-02
RMM:   8    -0.112145522673E+04   -0.14181E-05   -0.18234E-05  3389   0.690E-03
   6 F= -.11214552E+04 E0= -.11214552E+04  d E =-.425423E-02  mag=    40.0000
       N       E                     dE             d eps       ncg     rms          rms(c)
DAV:   1    -0.112145062439E+04    0.46009E-02   -0.21435E+00  6240   0.173E+00    0.534E-01
RMM:   2    -0.112145684140E+04   -0.62170E-02   -0.55853E-02  6284   0.310E-01    0.367E-01
RMM:   3    -0.112145715906E+04   -0.31766E-03   -0.29863E-03  6465   0.979E-02    0.204E-01
RMM:   4    -0.112145701732E+04    0.14174E-03   -0.71990E-04  6266   0.314E-02    0.110E-01
RMM:   5    -0.112145698366E+04    0.33656E-04   -0.27555E-04  4211   0.203E-02    0.499E-02
RMM:   6    -0.112145698874E+04   -0.50824E-05   -0.65817E-05  3615   0.134E-02    0.412E-02
RMM:   7    -0.112145699124E+04   -0.24935E-05   -0.34267E-05  3522   0.811E-03    0.184E-02
RMM:   8    -0.112145699276E+04   -0.15239E-05   -0.20260E-05  3401   0.714E-03
   7 F= -.11214570E+04 E0= -.11214570E+04  d E =-.602026E-02  mag=    40.0000
       N       E                     dE             d eps       ncg     rms          rms(c)
DAV:   1    -0.112145647838E+04    0.51286E-03   -0.98242E-01  6208   0.114E+00    0.349E-01
RMM:   2    -0.112145926605E+04   -0.27877E-02   -0.24987E-02  6209   0.204E-01    0.225E-01
RMM:   3    -0.112145939825E+04   -0.13220E-03   -0.13458E-03  6070   0.684E-02    0.121E-01
RMM:   4    -0.112145932473E+04    0.73520E-04   -0.34751E-04  4589   0.219E-02    0.677E-02
RMM:   5    -0.112145931235E+04    0.12379E-04   -0.92306E-05  3632   0.142E-02    0.553E-02
RMM:   6    -0.112145931540E+04   -0.30564E-05   -0.35972E-05  3548   0.924E-03    0.209E-02
RMM:   7    -0.112145931640E+04   -0.99839E-06   -0.18371E-05  3374   0.627E-03    0.146E-02
RMM:   8    -0.112145931672E+04   -0.32048E-06   -0.11917E-05  3205   0.508E-03
   8 F= -.11214593E+04 E0= -.11214593E+04  d E =-.232396E-02  mag=    40.0000
       N       E                     dE             d eps       ncg     rms          rms(c)
DAV:   1    -0.112145679023E+04    0.25262E-02   -0.12324E+00  6160   0.128E+00    0.391E-01
RMM:   2    -0.112146028305E+04   -0.34928E-02   -0.31299E-02  6213   0.228E-01    0.252E-01
RMM:   3    -0.112146044841E+04   -0.16536E-03   -0.16815E-03  6173   0.758E-02    0.136E-01
RMM:   4    -0.112146035717E+04    0.91242E-04   -0.44711E-04  5183   0.243E-02    0.743E-02
RMM:   5    -0.112146034009E+04    0.17076E-04   -0.11050E-04  3678   0.153E-02    0.568E-02
RMM:   6    -0.112146034349E+04   -0.34001E-05   -0.39926E-05  3571   0.990E-03    0.248E-02
RMM:   7    -0.112146034473E+04   -0.12350E-05   -0.21061E-05  3410   0.657E-03    0.157E-02
RMM:   8    -0.112146034499E+04   -0.26463E-06   -0.13405E-05  3259   0.550E-03
   9 F= -.11214603E+04 E0= -.11214603E+04  d E =-.335223E-02  mag=    40.0000
       N       E                     dE             d eps       ncg     rms          rms(c)
DAV:   1    -0.112146050938E+04   -0.16466E-03   -0.83888E-01  6208   0.106E+00    0.239E-01
RMM:   2    -0.112146244104E+04   -0.19317E-02   -0.21052E-02  6246   0.186E-01    0.161E-01
RMM:   3    -0.112146245795E+04   -0.16904E-04   -0.11291E-03  5942   0.601E-02    0.102E-01
RMM:   4    -0.112146240720E+04    0.50743E-04   -0.20351E-04  3892   0.181E-02    0.635E-02
RMM:   5    -0.112146238690E+04    0.20304E-04   -0.11250E-04  3606   0.137E-02    0.348E-02
RMM:   6    -0.112146239040E+04   -0.35020E-05   -0.34649E-05  3513   0.970E-03    0.288E-02
RMM:   7    -0.112146239226E+04   -0.18600E-05   -0.18408E-05  3370   0.571E-03    0.124E-02
RMM:   8    -0.112146239303E+04   -0.76635E-06   -0.10440E-05  3108   0.533E-03
  10 F= -.11214624E+04 E0= -.11214624E+04  d E =-.204804E-02  mag=    40.0000
       N       E                     dE             d eps       ncg     rms          rms(c)
DAV:   1    -0.112145584540E+04    0.65469E-02   -0.37026E+00  6144   0.222E+00    0.506E-01
RMM:   2    -0.112146431049E+04   -0.84651E-02   -0.92352E-02  6228   0.390E-01    0.339E-01
RMM:   3    -0.112146438934E+04   -0.78847E-04   -0.48893E-03  6396   0.127E-01    0.211E-01
RMM:   4    -0.112146417546E+04    0.21388E-03   -0.10757E-03  6854   0.378E-02    0.129E-01
RMM:   5    -0.112146409190E+04    0.83551E-04   -0.55042E-04  5638   0.251E-02    0.738E-02
RMM:   6    -0.112146409265E+04   -0.74116E-06   -0.94760E-05  3687   0.140E-02    0.510E-02
RMM:   7    -0.112146409692E+04   -0.42767E-05   -0.40449E-05  3590   0.865E-03    0.190E-02
RMM:   8    -0.112146409840E+04   -0.14805E-05   -0.25245E-05  3470   0.747E-03
  11 F= -.11214641E+04 E0= -.11214641E+04  d E =-.375341E-02  mag=    40.0000
       N       E                     dE             d eps       ncg     rms          rms(c)
DAV:   1    -0.112146339839E+04    0.69854E-03   -0.11357E+00  6192   0.122E+00    0.251E-01
RMM:   2    -0.112146603068E+04   -0.26323E-02   -0.27973E-02  6254   0.210E-01    0.171E-01
RMM:   3    -0.112146603282E+04   -0.21397E-05   -0.14339E-03  5985   0.684E-02    0.109E-01
RMM:   4    -0.112146598005E+04    0.52775E-04   -0.28791E-04  4278   0.202E-02    0.666E-02
RMM:   5    -0.112146596410E+04    0.15948E-04   -0.12882E-04  3641   0.147E-02    0.400E-02
RMM:   6    -0.112146596835E+04   -0.42532E-05   -0.38478E-05  3503   0.101E-02    0.284E-02
RMM:   7    -0.112146597091E+04   -0.25612E-05   -0.22495E-05  3365   0.608E-03    0.114E-02
RMM:   8    -0.112146597212E+04   -0.12028E-05   -0.13031E-05  3183   0.580E-03
  12 F= -.11214660E+04 E0= -.11214660E+04  d E =-.187371E-02  mag=    40.0000
       N       E                     dE             d eps       ncg     rms          rms(c)
DAV:   1    -0.112145578309E+04    0.10188E-01   -0.52769E+00  6144   0.262E+00    0.537E-01
RMM:   2    -0.112146788926E+04   -0.12106E-01   -0.12891E-01  6235   0.451E-01    0.366E-01
RMM:   3    -0.112146792327E+04   -0.34013E-04   -0.66252E-03  6337   0.149E-01    0.233E-01
RMM:   4    -0.112146768687E+04    0.23641E-03   -0.14754E-03  7169   0.432E-02    0.140E-01
RMM:   5    -0.112146761214E+04    0.74725E-04   -0.64206E-04  5948   0.250E-02    0.651E-02
RMM:   6    -0.112146761835E+04   -0.62060E-05   -0.94554E-05  3687   0.134E-02    0.394E-02
RMM:   7    -0.112146762391E+04   -0.55633E-05   -0.50433E-05  3582   0.833E-03    0.194E-02
RMM:   8    -0.112146762600E+04   -0.20864E-05   -0.30101E-05  3510   0.800E-03
  13 F= -.11214676E+04 E0= -.11214676E+04  d E =-.352760E-02  mag=    40.0000
       N       E                     dE             d eps       ncg     rms          rms(c)
DAV:   1    -0.112146660125E+04    0.10227E-02   -0.12335E+00  6240   0.126E+00    0.297E-01
RMM:   2    -0.112146963700E+04   -0.30357E-02   -0.30564E-02  6287   0.219E-01    0.201E-01
RMM:   3    -0.112146967073E+04   -0.33727E-04   -0.15682E-03  6099   0.694E-02    0.123E-01
RMM:   4    -0.112146960043E+04    0.70302E-04   -0.33132E-04  4578   0.216E-02    0.681E-02
RMM:   5    -0.112146958740E+04    0.13027E-04   -0.12274E-04  3653   0.147E-02    0.376E-02
RMM:   6    -0.112146959110E+04   -0.36973E-05   -0.39074E-05  3505   0.101E-02    0.317E-02
RMM:   7    -0.112146959333E+04   -0.22283E-05   -0.22160E-05  3348   0.618E-03    0.103E-02
RMM:   8    -0.112146959437E+04   -0.10487E-05   -0.13085E-05  3187   0.569E-03
  14 F= -.11214696E+04 E0= -.11214696E+04  d E =-.196838E-02  mag=    40.0000
       N       E                     dE             d eps       ncg     rms          rms(c)
DAV:   1    -0.112146480119E+04    0.47921E-02   -0.23925E+00  6144   0.176E+00    0.413E-01
RMM:   2    -0.112147063788E+04   -0.58367E-02   -0.58771E-02  6273   0.305E-01    0.280E-01
RMM:   3    -0.112147071851E+04   -0.80633E-04   -0.30391E-03  6282   0.972E-02    0.172E-01
RMM:   4    -0.112147058538E+04    0.13313E-03   -0.67386E-04  6037   0.297E-02    0.947E-02
RMM:   5    -0.112147055660E+04    0.28783E-04   -0.24509E-04  4138   0.184E-02    0.404E-02
RMM:   6    -0.112147056107E+04   -0.44696E-05   -0.53896E-05  3578   0.115E-02    0.347E-02
RMM:   7    -0.112147056382E+04   -0.27506E-05   -0.28083E-05  3468   0.712E-03    0.130E-02
RMM:   8    -0.112147056502E+04   -0.12019E-05   -0.17136E-05  3330   0.652E-03
  15 F= -.11214706E+04 E0= -.11214706E+04  d E =-.293902E-02  mag=    40.0000
       N       E                     dE             d eps       ncg     rms          rms(c)
DAV:   1    -0.112146851030E+04    0.20535E-02   -0.16166E+00  6144   0.145E+00    0.360E-01
RMM:   2    -0.112147229604E+04   -0.37857E-02   -0.40004E-02  6285   0.251E-01    0.240E-01
RMM:   3    -0.112147229514E+04    0.89544E-06   -0.20439E-03  6191   0.809E-02    0.145E-01
RMM:   4    -0.112147218702E+04    0.10812E-03   -0.50956E-04  5427   0.261E-02    0.746E-02
RMM:   5    -0.112147216792E+04    0.19104E-04   -0.14274E-04  3706   0.164E-02    0.446E-02
RMM:   6    -0.112147217165E+04   -0.37303E-05   -0.42497E-05  3563   0.105E-02    0.295E-02
RMM:   7    -0.112147217373E+04   -0.20763E-05   -0.25026E-05  3444   0.665E-03    0.140E-02
RMM:   8    -0.112147217437E+04   -0.64063E-06   -0.14702E-05  3305   0.602E-03
  16 F= -.11214722E+04 E0= -.11214722E+04  d E =-.160934E-02  mag=    40.0000
       N       E                     dE             d eps       ncg     rms          rms(c)
DAV:   1    -0.112147115712E+04    0.10166E-02   -0.54739E-01  6256   0.846E-01    0.209E-01
RMM:   2    -0.112147245320E+04   -0.12961E-02   -0.13692E-02  6322   0.147E-01    0.141E-01
RMM:   3    -0.112147244688E+04    0.63163E-05   -0.67053E-04  5284   0.462E-02    0.852E-02
RMM:   4    -0.112147240937E+04    0.37511E-04   -0.14836E-04  3684   0.156E-02    0.455E-02
RMM:   5    -0.112147240399E+04    0.53839E-05   -0.58862E-05  3550   0.106E-02    0.168E-02
RMM:   6    -0.112147240595E+04   -0.19622E-05   -0.21138E-05  3468   0.688E-03    0.166E-02
RMM:   7    -0.112147240689E+04   -0.94385E-06   -0.11846E-05  3163   0.472E-03    0.774E-03
RMM:   8    -0.112147240721E+04   -0.31326E-06   -0.70989E-06  2834   0.401E-03
  17 F= -.11214724E+04 E0= -.11214724E+04  d E =-.184218E-02  mag=    40.0000
       N       E                     dE             d eps       ncg     rms          rms(c)
DAV:   1    -0.112147092246E+04    0.14844E-02   -0.11372E+00  6160   0.122E+00    0.294E-01
RMM:   2    -0.112147364076E+04   -0.27183E-02   -0.27981E-02  6251   0.209E-01    0.213E-01
RMM:   3    -0.112147365250E+04   -0.11735E-04   -0.14174E-03  5978   0.685E-02    0.126E-01
RMM:   4    -0.112147357348E+04    0.79021E-04   -0.34474E-04  4550   0.219E-02    0.710E-02
RMM:   5    -0.112147355764E+04    0.15837E-04   -0.11264E-04  3644   0.147E-02    0.552E-02
RMM:   6    -0.112147356172E+04   -0.40820E-05   -0.36710E-05  3526   0.994E-03    0.250E-02
RMM:   7    -0.112147356415E+04   -0.24257E-05   -0.19146E-05  3387   0.592E-03    0.148E-02
RMM:   8    -0.112147356549E+04   -0.13446E-05   -0.11172E-05  3226   0.544E-03
  18 F= -.11214736E+04 E0= -.11214736E+04  d E =-.115829E-02  mag=    40.0000
