<?xml version="1.0" encoding="ISO-8859-1"?>
<modeling>
 <generator>
  <i name="program" type="string">vasp </i>
  <i name="version" type="string">5.4.1  </i>
  <i name="subversion" type="string">05Feb16 (build Jan 25 2017 20:16:33) complex                          parallel </i>
  <i name="platform" type="string">BWXE6 </i>
  <i name="date" type="string">2019 08 11 </i>
  <i name="time" type="string">11:32:37 </i>
 </generator>
 <incar>
  <i type="string" name="SYSTEM"> STF</i>
  <i type="string" name="PREC">normal</i>
  <i type="string" name="ALGO"> Fast</i>
  <i type="int" name="ISPIN">     2</i>
  <i type="int" name="NELM">    40</i>
  <i type="int" name="NELMIN">     8</i>
  <i type="int" name="IBRION">     2</i>
  <i name="EDIFF">      0.00010000</i>
  <i name="EDIFFG">     -0.03000000</i>
  <i type="int" name="NSW">    30</i>
  <i type="int" name="ISIF">     3</i>
  <i name="ENCUT">    520.00000000</i>
  <i type="int" name="NBANDS">   768</i>
  <v name="MAGMOM">      0.60000000      0.60000000      0.60000000      0.60000000      0.60000000      0.60000000      0.60000000      0.60000000      0.60000000      0.60000000      0.60000000      0.60000000      0.60000000      0.60000000      0.60000000      0.60000000      0.60000000      0.60000000      0.60000000      0.60000000
      0.60000000      0.60000000      0.60000000      0.60000000      0.60000000      0.60000000      0.60000000      0.60000000      0.60000000      0.60000000      0.60000000      0.60000000      0.60000000      0.60000000      0.60000000      0.60000000      0.60000000      0.60000000      0.60000000      0.60000000
      0.60000000      0.60000000      0.60000000      0.60000000      0.60000000      0.60000000      0.60000000      0.60000000      0.60000000      0.60000000      0.60000000      0.60000000      0.60000000      0.60000000      0.60000000      0.60000000      5.00000000      5.00000000      5.00000000      5.00000000
      5.00000000      5.00000000      5.00000000      5.00000000      0.60000000      0.60000000      0.60000000      0.60000000      0.60000000      0.60000000      0.60000000      0.60000000      0.60000000      0.60000000      0.60000000      0.60000000      0.60000000      0.60000000      0.60000000      0.60000000
      0.60000000      0.60000000      0.60000000      0.60000000      0.60000000      0.60000000      0.60000000      0.60000000      0.60000000      0.60000000      0.60000000      0.60000000      0.60000000      0.60000000      0.60000000      0.60000000      0.60000000      0.60000000      0.60000000      0.60000000
      0.60000000      0.60000000      0.60000000      0.60000000      0.60000000      0.60000000      0.60000000      0.60000000      0.60000000      0.60000000      0.60000000      0.60000000      0.60000000      0.60000000      0.60000000      0.60000000      0.60000000      0.60000000      0.60000000      0.60000000
      0.60000000      0.60000000      0.60000000      0.60000000      0.60000000      0.60000000      0.60000000      0.60000000      0.60000000      0.60000000      0.60000000      0.60000000      0.60000000      0.60000000      0.60000000      0.60000000      0.60000000      0.60000000      0.60000000      0.60000000
      0.60000000      0.60000000      0.60000000      0.60000000      0.60000000      0.60000000      0.60000000      0.60000000      0.60000000      0.60000000      0.60000000      0.60000000      0.60000000      0.60000000      0.60000000      0.60000000</v>
  <i type="string" name="LREAL"> Auto</i>
  <i type="int" name="ISMEAR">     0</i>
  <i name="SIGMA">      0.05000000</i>
  <i type="int" name="LMAXMIX">     4</i>
  <v type="int" name="KPOINT_BSE">    -1     0     0     0</v>
  <i type="int" name="NELM">    40</i>
  <i type="logical" name="LDAU"> T  </i>
  <v type="int" name="LDAUTYPE">     2</v>
  <v type="int" name="LDAUL">     0     2     2     0</v>
  <v name="LDAUU">      0.00000000      3.00000000      5.00000000      0.00000000</v>
  <v name="LDAUJ">      0.00000000      0.00000000      0.00000000      0.00000000</v>
  <i type="int" name="LDAUPRINT">     1</i>
 </incar>
 <kpoints>
  <generation param="Monkhorst-Pack">
   <v type="int" name="divisions">       2        2        2 </v>
   <v name="usershift">      0.00000000       0.00000000       0.00000000 </v>
   <v name="genvec1">      0.50000000       0.00000000       0.00000000 </v>
   <v name="genvec2">      0.00000000       0.50000000       0.00000000 </v>
   <v name="genvec3">      0.00000000       0.00000000       0.50000000 </v>
   <v name="shift">      0.50000000       0.50000000       0.50000000 </v>
  </generation>
  <varray name="kpointlist" >
   <v>       0.25000000       0.25000000       0.25000000 </v>
   <v>      -0.25000000       0.25000000       0.25000000 </v>
  </varray>
  <varray name="weights" >
   <v>       0.50000000 </v>
   <v>       0.50000000 </v>
  </varray>
 </kpoints>
 <parameters>
  <separator name="general" >
   <i type="string" name="SYSTEM">STF</i>
   <i type="logical" name="LCOMPAT"> F  </i>
  </separator>
  <separator name="electronic" >
   <i type="string" name="PREC">normal</i>
   <i name="ENMAX">    520.00000000</i>
   <i name="ENAUG">    605.39200000</i>
   <i name="EDIFF">      0.00010000</i>
   <i type="int" name="IALGO">    68</i>
   <i type="int" name="IWAVPR">    11</i>
   <i type="int" name="NBANDS">   768</i>
   <i name="NELECT">   1032.00000000</i>
   <i type="int" name="TURBO">     0</i>
   <i type="int" name="IRESTART">     0</i>
   <i type="int" name="NREBOOT">     0</i>
   <i type="int" name="NMIN">     0</i>
   <i name="EREF">      0.00000000</i>
   <separator name="electronic smearing" >
    <i type="int" name="ISMEAR">     0</i>
    <i name="SIGMA">      0.05000000</i>
    <i name="KSPACING">      0.50000000</i>
    <i type="logical" name="KGAMMA"> T  </i>
   </separator>
   <separator name="electronic projectors" >
    <i type="logical" name="LREAL"> T  </i>
    <v name="ROPT">     -0.00050000     -0.00050000     -0.00050000     -0.00050000</v>
    <i type="int" name="LMAXPAW">  -100</i>
    <i type="int" name="LMAXMIX">     4</i>
    <i type="logical" name="NLSPLINE"> F  </i>
   </separator>
   <separator name="electronic startup" >
    <i type="int" name="ISTART">     1</i>
    <i type="int" name="ICHARG">     0</i>
    <i type="int" name="INIWAV">     1</i>
   </separator>
   <separator name="electronic spin" >
    <i type="int" name="ISPIN">     2</i>
    <i type="logical" name="LNONCOLLINEAR"> F  </i>
    <v name="MAGMOM">      0.60000000      0.60000000      0.60000000      0.60000000      0.60000000      0.60000000      0.60000000      0.60000000      0.60000000      0.60000000      0.60000000      0.60000000      0.60000000      0.60000000      0.60000000      0.60000000      0.60000000      0.60000000      0.60000000      0.60000000
      0.60000000      0.60000000      0.60000000      0.60000000      0.60000000      0.60000000      0.60000000      0.60000000      0.60000000      0.60000000      0.60000000      0.60000000      0.60000000      0.60000000      0.60000000      0.60000000      0.60000000      0.60000000      0.60000000      0.60000000
      0.60000000      0.60000000      0.60000000      0.60000000      0.60000000      0.60000000      0.60000000      0.60000000      0.60000000      0.60000000      0.60000000      0.60000000      0.60000000      0.60000000      0.60000000      0.60000000      5.00000000      5.00000000      5.00000000      5.00000000
      5.00000000      5.00000000      5.00000000      5.00000000      0.60000000      0.60000000      0.60000000      0.60000000      0.60000000      0.60000000      0.60000000      0.60000000      0.60000000      0.60000000      0.60000000      0.60000000      0.60000000      0.60000000      0.60000000      0.60000000
      0.60000000      0.60000000      0.60000000      0.60000000      0.60000000      0.60000000      0.60000000      0.60000000      0.60000000      0.60000000      0.60000000      0.60000000      0.60000000      0.60000000      0.60000000      0.60000000      0.60000000      0.60000000      0.60000000      0.60000000
      0.60000000      0.60000000      0.60000000      0.60000000      0.60000000      0.60000000      0.60000000      0.60000000      0.60000000      0.60000000      0.60000000      0.60000000      0.60000000      0.60000000      0.60000000      0.60000000      0.60000000      0.60000000      0.60000000      0.60000000
      0.60000000      0.60000000      0.60000000      0.60000000      0.60000000      0.60000000      0.60000000      0.60000000      0.60000000      0.60000000      0.60000000      0.60000000      0.60000000      0.60000000      0.60000000      0.60000000      0.60000000      0.60000000      0.60000000      0.60000000
      0.60000000      0.60000000      0.60000000      0.60000000      0.60000000      0.60000000      0.60000000      0.60000000      0.60000000      0.60000000      0.60000000      0.60000000      0.60000000      0.60000000      0.60000000      0.60000000</v>
    <i name="NUPDOWN">     -1.00000000</i>
    <i type="logical" name="LSORBIT"> F  </i>
    <v name="SAXIS">      0.00000000      0.00000000      1.00000000</v>
    <i type="logical" name="LSPIRAL"> F  </i>
    <v name="QSPIRAL">      0.00000000      0.00000000      0.00000000</v>
    <i type="logical" name="LZEROZ"> F  </i>
   </separator>
   <separator name="electronic exchange-correlation" >
    <i type="logical" name="LASPH"> F  </i>
    <i type="logical" name="LMETAGGA"> F  </i>
   </separator>
   <separator name="electronic convergence" >
    <i type="int" name="NELM">    40</i>
    <i type="int" name="NELMDL">     0</i>
    <i type="int" name="NELMIN">     8</i>
    <i name="ENINI">    520.00000000</i>
    <separator name="electronic convergence detail" >
     <i type="logical" name="LDIAG"> T  </i>
     <i type="logical" name="LSUBROT"> F  </i>
     <i name="WEIMIN">      0.00100000</i>
     <i name="EBREAK">      0.00000003</i>
     <i name="DEPER">      0.30000000</i>
     <i type="int" name="NRMM">     4</i>
     <i name="TIME">      0.40000000</i>
    </separator>
   </separator>
   <separator name="electronic mixer" >
    <i name="AMIX">      0.40000000</i>
    <i name="BMIX">      1.00000000</i>
    <i name="AMIN">      0.10000000</i>
    <i name="AMIX_MAG">      1.60000000</i>
    <i name="BMIX_MAG">      1.00000000</i>
    <separator name="electronic mixer details" >
     <i type="int" name="IMIX">     4</i>
     <i type="logical" name="MIXFIRST"> F  </i>
     <i type="int" name="MAXMIX">   -45</i>
     <i name="WC">    100.00000000</i>
     <i type="int" name="INIMIX">     1</i>
     <i type="int" name="MIXPRE">     1</i>
     <i type="int" name="MREMOVE">     5</i>
    </separator>
   </separator>
   <separator name="electronic dipolcorrection" >
    <i type="logical" name="LDIPOL"> F  </i>
    <i type="logical" name="LMONO"> F  </i>
    <i type="int" name="IDIPOL">     0</i>
    <i name="EPSILON">      1.00000000</i>
    <v name="DIPOL">   -100.00000000   -100.00000000   -100.00000000</v>
    <i name="EFIELD">      0.00000000</i>
   </separator>
  </separator>
  <separator name="grids" >
   <i type="int" name="NGX">    64</i>
   <i type="int" name="NGY">    64</i>
   <i type="int" name="NGZ">    90</i>
   <i type="int" name="NGXF">   128</i>
   <i type="int" name="NGYF">   128</i>
   <i type="int" name="NGZF">   180</i>
   <i type="logical" name="ADDGRID"> F  </i>
  </separator>
  <separator name="ionic" >
   <i type="int" name="NSW">    30</i>
   <i type="int" name="IBRION">     2</i>
   <i type="int" name="ISIF">     3</i>
   <i name="PSTRESS">      0.00000000</i>
   <i name="EDIFFG">     -0.03000000</i>
   <i type="int" name="NFREE">     1</i>
   <i name="POTIM">      0.50000000</i>
   <i name="SMASS">     -3.00000000</i>
   <i name="SCALEE">      1.00000000</i>
  </separator>
  <separator name="ionic md" >
   <i name="TEBEG">      0.00010000</i>
   <i name="TEEND">      0.00010000</i>
   <i type="int" name="NBLOCK">     1</i>
   <i type="int" name="KBLOCK">    30</i>
   <i type="int" name="NPACO">   256</i>
   <i name="APACO">     16.00000000</i>
  </separator>
  <separator name="symmetry" >
   <i type="int" name="ISYM">     2</i>
   <i name="SYMPREC">      0.00001000</i>
  </separator>
  <separator name="dos" >
   <i type="logical" name="LORBIT"> F  </i>
   <v name="RWIGS">     -1.00000000     -1.00000000     -1.00000000     -1.00000000</v>
   <i type="int" name="NEDOS">   301</i>
   <i name="EMIN">     10.00000000</i>
   <i name="EMAX">    -10.00000000</i>
   <i name="EFERMI">      0.00000000</i>
  </separator>
  <separator name="writing" >
   <i type="int" name="NWRITE">     2</i>
   <i type="logical" name="LWAVE"> T  </i>
   <i type="logical" name="LCHARG"> T  </i>
   <i type="logical" name="LPARD"> F  </i>
   <i type="logical" name="LVTOT"> F  </i>
   <i type="logical" name="LVHAR"> F  </i>
   <i type="logical" name="LELF"> F  </i>
   <i type="logical" name="LOPTICS"> F  </i>
   <v name="STM">      0.00000000      0.00000000      0.00000000      0.00000000      0.00000000      0.00000000      0.00000000</v>
  </separator>
  <separator name="performance" >
   <i type="int" name="NPAR">     2</i>
   <i type="int" name="NSIM">     4</i>
   <i type="int" name="NBLK">    -1</i>
   <i type="logical" name="LPLANE"> T  </i>
   <i type="logical" name="LSCALAPACK"> T  </i>
   <i type="logical" name="LSCAAWARE"> F  </i>
   <i type="logical" name="LSCALU"> F  </i>
   <i type="logical" name="LASYNC"> F  </i>
   <i type="logical" name="LORBITALREAL"> F  </i>
  </separator>
  <separator name="miscellaneous" >
   <i type="int" name="IDIOT">     3</i>
   <i type="logical" name="LMUSIC"> F  </i>
   <v name="POMASS">     87.62000000     47.88000000     55.84700000     16.00000000</v>
   <v name="DARWINR">      0.00000000      0.00000000      0.00000000      0.00000000</v>
   <v name="DARWINV">      1.00000000      1.00000000      1.00000000      1.00000000</v>
   <i type="logical" name="LCORR"> T  </i>
  </separator>
  <i type="logical" name="GGA_COMPAT"> T  </i>
  <i type="logical" name="LBERRY"> F  </i>
  <i type="int" name="ICORELEVEL">     0</i>
  <i type="logical" name="LDAU"> T  </i>
  <v type="int" name="LDAUTYPE">     2</v>
  <v type="int" name="LDAUL">     0</v>
  <v name="LDAUU">      0.00000000</v>
  <v name="LDAUJ">      0.00000000</v>
  <i type="int" name="LDAUPRINT">     1</i>
  <i type="int" name="I_CONSTRAINED_M">     0</i>
  <separator name="electronic exchange-correlation" >
   <i type="string" name="GGA">--</i>
   <i type="int" name="VOSKOWN">     0</i>
   <i type="logical" name="LHFCALC"> F  </i>
   <i type="string" name="PRECFOCK"></i>
   <i type="logical" name="LSYMGRAD"> F  </i>
   <i type="logical" name="LHFONE"> F  </i>
   <i type="logical" name="LRHFCALC"> F  </i>
   <i type="logical" name="LTHOMAS"> F  </i>
   <i type="logical" name="LMODELHF"> F  </i>
   <i name="ENCUT4O">     -1.00000000</i>
   <i type="int" name="EXXOEP">     0</i>
   <i type="int" name="FOURORBIT">     0</i>
   <i name="AEXX">      0.00000000</i>
   <i name="HFALPHA">      0.00000000</i>
   <i name="MCALPHA">      0.00000000</i>
   <i name="ALDAX">      1.00000000</i>
   <i name="AGGAX">      1.00000000</i>
   <i name="ALDAC">      1.00000000</i>
   <i name="AGGAC">      1.00000000</i>
   <i type="int" name="NKREDX">     1</i>
   <i type="int" name="NKREDY">     1</i>
   <i type="int" name="NKREDZ">     1</i>
   <i type="logical" name="SHIFTRED"> F  </i>
   <i type="logical" name="ODDONLY"> F  </i>
   <i type="logical" name="EVENONLY"> F  </i>
   <i type="int" name="LMAXFOCK">     0</i>
   <i type="int" name="NMAXFOCKAE">     0</i>
   <i type="logical" name="LFOCKAEDFT"> F  </i>
   <i name="HFSCREEN">      0.00000000</i>
   <i name="HFSCREENC">      0.00000000</i>
   <i type="int" name="NBANDSGWLOW">     0</i>
  </separator>
  <separator name="vdW DFT" >
   <i type="logical" name="LUSE_VDW"> F  </i>
   <i name="Zab_VDW">     -0.84910000</i>
   <i name="PARAM1">      0.12340000</i>
   <i name="PARAM2">      1.00000000</i>
   <i name="PARAM3">      0.00000000</i>
  </separator>
  <separator name="model GW" >
   <i type="int" name="MODEL_GW">     0</i>
   <i name="MODEL_EPS0">      7.73772865</i>
   <i name="MODEL_ALPHA">      1.00000000</i>
  </separator>
  <separator name="linear response parameters" >
   <i type="logical" name="LEPSILON"> F  </i>
   <i type="logical" name="LRPA"> F  </i>
   <i type="logical" name="LNABLA"> F  </i>
   <i type="logical" name="LVEL"> F  </i>
   <i type="int" name="KINTER">     0</i>
   <i name="CSHIFT">      0.10000000</i>
   <i name="OMEGAMAX">     -1.00000000</i>
   <i name="DEG_THRESHOLD">      0.00200000</i>
  </separator>
  <separator name="orbital magnetization" >
   <i type="logical" name="NUCIND"> F  </i>
   <v name="MAGPOS">      0.00000000      0.00000000      0.00000000</v>
   <i type="logical" name="LNICSALL"> T  </i>
   <i type="logical" name="ORBITALMAG"> F  </i>
   <i type="logical" name="LMAGBLOCH"> F  </i>
   <i type="logical" name="LCHIMAG"> F  </i>
   <i type="logical" name="LGAUGE"> T  </i>
   <i type="int" name="MAGATOM">     0</i>
   <v name="MAGDIPOL">      0.00000000      0.00000000      0.00000000</v>
   <v name="AVECCONST">      0.00000000      0.00000000      0.00000000</v>
  </separator>
  <separator name="response functions" >
   <i type="logical" name="LADDER"> F  </i>
   <i type="logical" name="LFXC"> F  </i>
   <i type="logical" name="LHARTREE"> T  </i>
   <i type="int" name="IBSE">     0</i>
   <v type="int" name="KPOINT">    -1     0     0     0</v>
   <i type="logical" name="LTCTE"> F  </i>
   <i type="logical" name="LTETE"> F  </i>
   <i type="logical" name="LTRIPLET"> F  </i>
   <i type="logical" name="LFXCEPS"> F  </i>
   <i type="logical" name="LFXHEG"> F  </i>
   <i type="int" name="NATURALO">     0</i>
   <i type="logical" name="L2ORDER"> F  </i>
   <i type="logical" name="LUSEW"> F  </i>
   <i name="ENCUTGW">     -2.00000000</i>
   <i name="ENCUTGWSOFT">     -2.00000000</i>
   <i name="ENCUTLF">     -1.00000000</i>
   <i type="int" name="LMAXMP2">    -1</i>
   <i name="SCISSOR">      0.00000000</i>
   <i type="int" name="NOMEGA">     0</i>
   <i type="int" name="NOMEGAR">     0</i>
   <i type="int" name="NBANDSGW">    -1</i>
   <i type="int" name="NBANDSO">    -1</i>
   <i type="int" name="NBANDSV">    -1</i>
   <i type="int" name="NELM">    40</i>
   <i type="int" name="NELMHF">     1</i>
   <i type="int" name="DIM">     3</i>
   <i type="int" name="ANTIRES">     0</i>
   <i name="OMEGAMAX">    -30.00000000</i>
   <i name="OMEGAMIN">    -30.00000000</i>
   <i name="OMEGATL">   -200.00000000</i>
   <i type="int" name="OMEGAGRID">     0</i>
   <i name="CSHIFT">     -0.10000000</i>
   <i type="logical" name="SELFENERGY"> F  </i>
   <i type="logical" name="LSPECTRAL"> F  </i>
   <i type="logical" name="LSPECTRALGW"> F  </i>
   <i type="logical" name="LSINGLES"> F  </i>
   <i type="logical" name="LFERMIGW"> F  </i>
   <i type="logical" name="ODDONLYGW"> F  </i>
   <i type="logical" name="EVENONLYGW"> F  </i>
   <i type="int" name="NKREDLFX">     1</i>
   <i type="int" name="NKREDLFY">     1</i>
   <i type="int" name="NKREDLFZ">     1</i>
   <i type="int" name="MAXMEM">  1800</i>
   <i type="int" name="TELESCOPE">     0</i>
   <i type="int" name="TAUPAR">     1</i>
   <i type="int" name="OMEGAPAR">    -1</i>
   <i name="LAMBDA">      1.00000000</i>
  </separator>
  <separator name="External order field" >
   <i name="OFIELD_KAPPA">      0.00000000</i>
   <v name="OFIELD_K">      0.00000000      0.00000000      0.00000000</v>
   <i name="OFIELD_Q6_NEAR">      0.00000000</i>
   <i name="OFIELD_Q6_FAR">      0.00000000</i>
   <i name="OFIELD_A">      0.00000000</i>
  </separator>
 </parameters>
 <atominfo>
  <atoms>     156 </atoms>
  <types>       4 </types>
  <array name="atoms" >
   <dimension dim="1">ion</dimension>
   <field type="string">element</field>
   <field type="int">atomtype</field>
   <set>
    <rc><c>Sr</c><c>   1</c></rc>
    <rc><c>Sr</c><c>   1</c></rc>
    <rc><c>Sr</c><c>   1</c></rc>
    <rc><c>Sr</c><c>   1</c></rc>
    <rc><c>Sr</c><c>   1</c></rc>
    <rc><c>Sr</c><c>   1</c></rc>
    <rc><c>Sr</c><c>   1</c></rc>
    <rc><c>Sr</c><c>   1</c></rc>
    <rc><c>Sr</c><c>   1</c></rc>
    <rc><c>Sr</c><c>   1</c></rc>
    <rc><c>Sr</c><c>   1</c></rc>
    <rc><c>Sr</c><c>   1</c></rc>
    <rc><c>Sr</c><c>   1</c></rc>
    <rc><c>Sr</c><c>   1</c></rc>
    <rc><c>Sr</c><c>   1</c></rc>
    <rc><c>Sr</c><c>   1</c></rc>
    <rc><c>Sr</c><c>   1</c></rc>
    <rc><c>Sr</c><c>   1</c></rc>
    <rc><c>Sr</c><c>   1</c></rc>
    <rc><c>Sr</c><c>   1</c></rc>
    <rc><c>Sr</c><c>   1</c></rc>
    <rc><c>Sr</c><c>   1</c></rc>
    <rc><c>Sr</c><c>   1</c></rc>
    <rc><c>Sr</c><c>   1</c></rc>
    <rc><c>Sr</c><c>   1</c></rc>
    <rc><c>Sr</c><c>   1</c></rc>
    <rc><c>Sr</c><c>   1</c></rc>
    <rc><c>Sr</c><c>   1</c></rc>
    <rc><c>Sr</c><c>   1</c></rc>
    <rc><c>Sr</c><c>   1</c></rc>
    <rc><c>Sr</c><c>   1</c></rc>
    <rc><c>Sr</c><c>   1</c></rc>
    <rc><c>Ti</c><c>   2</c></rc>
    <rc><c>Ti</c><c>   2</c></rc>
    <rc><c>Ti</c><c>   2</c></rc>
    <rc><c>Ti</c><c>   2</c></rc>
    <rc><c>Ti</c><c>   2</c></rc>
    <rc><c>Ti</c><c>   2</c></rc>
    <rc><c>Ti</c><c>   2</c></rc>
    <rc><c>Ti</c><c>   2</c></rc>
    <rc><c>Ti</c><c>   2</c></rc>
    <rc><c>Ti</c><c>   2</c></rc>
    <rc><c>Ti</c><c>   2</c></rc>
    <rc><c>Ti</c><c>   2</c></rc>
    <rc><c>Ti</c><c>   2</c></rc>
    <rc><c>Ti</c><c>   2</c></rc>
    <rc><c>Ti</c><c>   2</c></rc>
    <rc><c>Ti</c><c>   2</c></rc>
    <rc><c>Ti</c><c>   2</c></rc>
    <rc><c>Ti</c><c>   2</c></rc>
    <rc><c>Ti</c><c>   2</c></rc>
    <rc><c>Ti</c><c>   2</c></rc>
    <rc><c>Ti</c><c>   2</c></rc>
    <rc><c>Ti</c><c>   2</c></rc>
    <rc><c>Ti</c><c>   2</c></rc>
    <rc><c>Ti</c><c>   2</c></rc>
    <rc><c>Fe</c><c>   3</c></rc>
    <rc><c>Fe</c><c>   3</c></rc>
    <rc><c>Fe</c><c>   3</c></rc>
    <rc><c>Fe</c><c>   3</c></rc>
    <rc><c>Fe</c><c>   3</c></rc>
    <rc><c>Fe</c><c>   3</c></rc>
    <rc><c>Fe</c><c>   3</c></rc>
    <rc><c>Fe</c><c>   3</c></rc>
    <rc><c>O </c><c>   4</c></rc>
    <rc><c>O </c><c>   4</c></rc>
    <rc><c>O </c><c>   4</c></rc>
    <rc><c>O </c><c>   4</c></rc>
    <rc><c>O </c><c>   4</c></rc>
    <rc><c>O </c><c>   4</c></rc>
    <rc><c>O </c><c>   4</c></rc>
    <rc><c>O </c><c>   4</c></rc>
    <rc><c>O </c><c>   4</c></rc>
    <rc><c>O </c><c>   4</c></rc>
    <rc><c>O </c><c>   4</c></rc>
    <rc><c>O </c><c>   4</c></rc>
    <rc><c>O </c><c>   4</c></rc>
    <rc><c>O </c><c>   4</c></rc>
    <rc><c>O </c><c>   4</c></rc>
    <rc><c>O </c><c>   4</c></rc>
    <rc><c>O </c><c>   4</c></rc>
    <rc><c>O </c><c>   4</c></rc>
    <rc><c>O </c><c>   4</c></rc>
    <rc><c>O </c><c>   4</c></rc>
    <rc><c>O </c><c>   4</c></rc>
    <rc><c>O </c><c>   4</c></rc>
    <rc><c>O </c><c>   4</c></rc>
    <rc><c>O </c><c>   4</c></rc>
    <rc><c>O </c><c>   4</c></rc>
    <rc><c>O </c><c>   4</c></rc>
    <rc><c>O </c><c>   4</c></rc>
    <rc><c>O </c><c>   4</c></rc>
    <rc><c>O </c><c>   4</c></rc>
    <rc><c>O </c><c>   4</c></rc>
    <rc><c>O </c><c>   4</c></rc>
    <rc><c>O </c><c>   4</c></rc>
    <rc><c>O </c><c>   4</c></rc>
    <rc><c>O </c><c>   4</c></rc>
    <rc><c>O </c><c>   4</c></rc>
    <rc><c>O </c><c>   4</c></rc>
    <rc><c>O </c><c>   4</c></rc>
    <rc><c>O </c><c>   4</c></rc>
    <rc><c>O </c><c>   4</c></rc>
    <rc><c>O </c><c>   4</c></rc>
    <rc><c>O </c><c>   4</c></rc>
    <rc><c>O </c><c>   4</c></rc>
    <rc><c>O </c><c>   4</c></rc>
    <rc><c>O </c><c>   4</c></rc>
    <rc><c>O </c><c>   4</c></rc>
    <rc><c>O </c><c>   4</c></rc>
    <rc><c>O </c><c>   4</c></rc>
    <rc><c>O </c><c>   4</c></rc>
    <rc><c>O </c><c>   4</c></rc>
    <rc><c>O </c><c>   4</c></rc>
    <rc><c>O </c><c>   4</c></rc>
    <rc><c>O </c><c>   4</c></rc>
    <rc><c>O </c><c>   4</c></rc>
    <rc><c>O </c><c>   4</c></rc>
    <rc><c>O </c><c>   4</c></rc>
    <rc><c>O </c><c>   4</c></rc>
    <rc><c>O </c><c>   4</c></rc>
    <rc><c>O </c><c>   4</c></rc>
    <rc><c>O </c><c>   4</c></rc>
    <rc><c>O </c><c>   4</c></rc>
    <rc><c>O </c><c>   4</c></rc>
    <rc><c>O </c><c>   4</c></rc>
    <rc><c>O </c><c>   4</c></rc>
    <rc><c>O </c><c>   4</c></rc>
    <rc><c>O </c><c>   4</c></rc>
    <rc><c>O </c><c>   4</c></rc>
    <rc><c>O </c><c>   4</c></rc>
    <rc><c>O </c><c>   4</c></rc>
    <rc><c>O </c><c>   4</c></rc>
    <rc><c>O </c><c>   4</c></rc>
    <rc><c>O </c><c>   4</c></rc>
    <rc><c>O </c><c>   4</c></rc>
    <rc><c>O </c><c>   4</c></rc>
    <rc><c>O </c><c>   4</c></rc>
    <rc><c>O </c><c>   4</c></rc>
    <rc><c>O </c><c>   4</c></rc>
    <rc><c>O </c><c>   4</c></rc>
    <rc><c>O </c><c>   4</c></rc>
    <rc><c>O </c><c>   4</c></rc>
    <rc><c>O </c><c>   4</c></rc>
    <rc><c>O </c><c>   4</c></rc>
    <rc><c>O </c><c>   4</c></rc>
    <rc><c>O </c><c>   4</c></rc>
    <rc><c>O </c><c>   4</c></rc>
    <rc><c>O </c><c>   4</c></rc>
    <rc><c>O </c><c>   4</c></rc>
    <rc><c>O </c><c>   4</c></rc>
    <rc><c>O </c><c>   4</c></rc>
    <rc><c>O </c><c>   4</c></rc>
    <rc><c>O </c><c>   4</c></rc>
    <rc><c>O </c><c>   4</c></rc>
    <rc><c>O </c><c>   4</c></rc>
   </set>
  </array>
  <array name="atomtypes" >
   <dimension dim="1">type</dimension>
   <field type="int">atomspertype</field>
   <field type="string">element</field>
   <field>mass</field>
   <field>valence</field>
   <field type="string">pseudopotential</field>
   <set>
    <rc><c>  32</c><c>Sr</c><c>     87.62000000</c><c>     10.00000000</c><c>  PAW_PBE Sr_sv 07Sep2000               </c></rc>
    <rc><c>  24</c><c>Ti</c><c>     47.88000000</c><c>      4.00000000</c><c>  PAW_PBE Ti 08Apr2002                  </c></rc>
    <rc><c>   8</c><c>Fe</c><c>     55.84700000</c><c>      8.00000000</c><c>  PAW_PBE Fe 06Sep2000                  </c></rc>
    <rc><c>  92</c><c>O </c><c>     16.00000000</c><c>      6.00000000</c><c>  PAW_PBE O 08Apr2002                   </c></rc>
   </set>
  </array>
 </atominfo>
 <structure name="initialpos" >
  <crystal>
   <varray name="basis" >
    <v>      11.23680172      -0.00060367       0.00000000 </v>
    <v>      -0.00063030      11.26325946       0.00000000 </v>
    <v>       0.00000000       0.00000000      15.89571395 </v>
   </varray>
   <i name="volume">   2011.80944871 </i>
   <varray name="rec_basis" >
    <v>       0.08899329       0.00000498       0.00000000 </v>
    <v>       0.00000477       0.08878425       0.00000000 </v>
    <v>       0.00000000       0.00000000       0.06291004 </v>
   </varray>
  </crystal>
  <varray name="positions" >
   <v>       0.99913157       0.25365543       0.11677877 </v>
   <v>       0.99996606       0.24960874       0.63106126 </v>
   <v>       0.99694638       0.74238843       0.11991078 </v>
   <v>       0.99959757       0.75004883       0.63007077 </v>
   <v>       0.49913157       0.25365543       0.11677877 </v>
   <v>       0.49996606       0.24960874       0.63106126 </v>
   <v>       0.49694638       0.74238843       0.11991078 </v>
   <v>       0.49959757       0.75004883       0.63007077 </v>
   <v>       0.99913157       0.25365543       0.38322123 </v>
   <v>       0.99996606       0.24960874       0.86893874 </v>
   <v>       0.99694638       0.74238843       0.38008922 </v>
   <v>       0.99959757       0.75004883       0.86992923 </v>
   <v>       0.49913157       0.25365543       0.38322123 </v>
   <v>       0.49996606       0.24960874       0.86893874 </v>
   <v>       0.49694638       0.74238843       0.38008922 </v>
   <v>       0.49959757       0.75004883       0.86992923 </v>
   <v>       0.24900522       0.99604694       0.11674934 </v>
   <v>       0.25002691       0.00014791       0.63098101 </v>
   <v>       0.24715697       0.50810162       0.11993597 </v>
   <v>       0.24954063       0.49995688       0.63013809 </v>
   <v>       0.74900522       0.99604694       0.11674934 </v>
   <v>       0.75002691       0.00014791       0.63098101 </v>
   <v>       0.74715697       0.50810162       0.11993597 </v>
   <v>       0.74954063       0.49995688       0.63013809 </v>
   <v>       0.24900522       0.99604694       0.38325066 </v>
   <v>       0.25002691       0.00014791       0.86901899 </v>
   <v>       0.24715697       0.50810162       0.38006403 </v>
   <v>       0.24954063       0.49995688       0.86986191 </v>
   <v>       0.74900522       0.99604694       0.38325066 </v>
   <v>       0.75002691       0.00014791       0.86901899 </v>
   <v>       0.74715697       0.50810162       0.38006403 </v>
   <v>       0.74954063       0.49995688       0.86986191 </v>
   <v>       0.99950753       0.00136130       0.00006978 </v>
   <v>       0.99950753       0.00136130       0.49993022 </v>
   <v>       0.49950753       0.00136130       0.00006978 </v>
   <v>       0.49950753       0.00136130       0.49993022 </v>
   <v>       0.24956510       0.24878148       0.99857120 </v>
   <v>       0.49890865       0.49869863       0.75000000 </v>
   <v>       0.74903013       0.75041014       0.99807243 </v>
   <v>       0.99890865       0.49869863       0.75000000 </v>
   <v>       0.24903013       0.75041014       0.99807243 </v>
   <v>       0.49979384       0.99886017       0.75000000 </v>
   <v>       0.24956510       0.24878148       0.50142880 </v>
   <v>       0.25123007       0.74624024       0.25000000 </v>
   <v>       0.74956510       0.24878148       0.50142880 </v>
   <v>       0.49909050       0.49961629       0.50044395 </v>
   <v>       0.99909050       0.49961629       0.99955605 </v>
   <v>       0.99909050       0.49961629       0.50044395 </v>
   <v>       0.74956510       0.24878148       0.99857120 </v>
   <v>       0.74903013       0.75041014       0.50192757 </v>
   <v>       0.00142975       0.50376556       0.25000000 </v>
   <v>       0.99979384       0.99886017       0.75000000 </v>
   <v>       0.75123007       0.74624024       0.25000000 </v>
   <v>       0.24903013       0.75041014       0.50192757 </v>
   <v>       0.50142975       0.50376556       0.25000000 </v>
   <v>       0.49909050       0.49961629       0.99955605 </v>
   <v>       0.24892605       0.75140599       0.75000000 </v>
   <v>       0.00782696       0.96998750       0.25000000 </v>
   <v>       0.25770659       0.27990770       0.25000000 </v>
   <v>       0.24968144       0.25082925       0.75000000 </v>
   <v>       0.75770659       0.27990770       0.25000000 </v>
   <v>       0.74968144       0.25082925       0.75000000 </v>
   <v>       0.50782696       0.96998750       0.25000000 </v>
   <v>       0.74892605       0.75140599       0.75000000 </v>
   <v>       0.99374251       0.02784751       0.13855049 </v>
   <v>       0.99958707       0.99550809       0.62162342 </v>
   <v>       0.00116642       0.50729005       0.12559744 </v>
   <v>       0.99693374       0.49140772       0.62271799 </v>
   <v>       0.49374251       0.02784751       0.13855049 </v>
   <v>       0.49958707       0.99550809       0.62162342 </v>
   <v>       0.50116642       0.50729005       0.12559744 </v>
   <v>       0.49693374       0.49140772       0.62271799 </v>
   <v>       0.99374251       0.02784751       0.36144951 </v>
   <v>       0.99958707       0.99550809       0.87837658 </v>
   <v>       0.00116642       0.50729005       0.37440256 </v>
   <v>       0.99693374       0.49140772       0.87728201 </v>
   <v>       0.49374251       0.02784751       0.36144951 </v>
   <v>       0.49958707       0.99550809       0.87837658 </v>
   <v>       0.50116642       0.50729005       0.37440256 </v>
   <v>       0.49693374       0.49140772       0.87728201 </v>
   <v>       0.24304382       0.22080098       0.36052386 </v>
   <v>       0.24961550       0.25482428       0.87895652 </v>
   <v>       0.25130147       0.74268317       0.37421004 </v>
   <v>       0.24656211       0.75940421       0.87801043 </v>
   <v>       0.74304382       0.22080098       0.36052386 </v>
   <v>       0.74961550       0.25482428       0.87895652 </v>
   <v>       0.75130147       0.74268317       0.37421004 </v>
   <v>       0.74656211       0.75940421       0.87801043 </v>
   <v>       0.24304382       0.22080098       0.13947614 </v>
   <v>       0.24961550       0.25482428       0.62104348 </v>
   <v>       0.25130147       0.74268317       0.12578996 </v>
   <v>       0.24656211       0.75940421       0.62198957 </v>
   <v>       0.74304382       0.22080098       0.13947614 </v>
   <v>       0.74961550       0.25482428       0.62104348 </v>
   <v>       0.75130147       0.74268317       0.12578996 </v>
   <v>       0.74656211       0.75940421       0.62198957 </v>
   <v>       0.14960449       0.40626935       0.25000000 </v>
   <v>       0.41174960       0.34626747       0.25000000 </v>
   <v>       0.64960449       0.40626935       0.25000000 </v>
   <v>       0.91174960       0.34626747       0.25000000 </v>
   <v>       0.10297503       0.65026924       0.25000000 </v>
   <v>       0.35316104       0.59963710       0.25000000 </v>
   <v>       0.60297503       0.65026924       0.25000000 </v>
   <v>       0.85316104       0.59963710       0.25000000 </v>
   <v>       0.16156331       0.90363753       0.25000000 </v>
   <v>       0.39944908       0.84453381       0.25000000 </v>
   <v>       0.66156331       0.90363753       0.25000000 </v>
   <v>       0.89944908       0.84453381       0.25000000 </v>
   <v>       0.13707715       0.11178353       0.50015649 </v>
   <v>       0.38747659       0.13767430       0.50004612 </v>
   <v>       0.63707715       0.11178353       0.50015649 </v>
   <v>       0.88747659       0.13767430       0.50004612 </v>
   <v>       0.11518880       0.36343023       0.49302558 </v>
   <v>       0.36295564       0.38351820       0.48858456 </v>
   <v>       0.61518880       0.36343023       0.49302558 </v>
   <v>       0.86295564       0.38351820       0.48858456 </v>
   <v>       0.13415119       0.61448955       0.50236499 </v>
   <v>       0.38450134       0.63498978       0.50248928 </v>
   <v>       0.63415119       0.61448955       0.50236499 </v>
   <v>       0.88450134       0.63498978       0.50248928 </v>
   <v>       0.11258185       0.86699496       0.48861721 </v>
   <v>       0.36592450       0.88681995       0.49303745 </v>
   <v>       0.61258185       0.86699496       0.48861721 </v>
   <v>       0.86592450       0.88681995       0.49303745 </v>
   <v>       0.11431308       0.13391572       0.75000000 </v>
   <v>       0.36632663       0.11430985       0.75000000 </v>
   <v>       0.61431308       0.13391572       0.75000000 </v>
   <v>       0.86632663       0.11430985       0.75000000 </v>
   <v>       0.13428880       0.38647222       0.75000000 </v>
   <v>       0.38543948       0.36467581       0.75000000 </v>
   <v>       0.63428880       0.38647222       0.75000000 </v>
   <v>       0.88543948       0.36467581       0.75000000 </v>
   <v>       0.11216993       0.63361491       0.75000000 </v>
   <v>       0.36467459       0.61391480       0.75000000 </v>
   <v>       0.61216993       0.63361491       0.75000000 </v>
   <v>       0.86467459       0.61391480       0.75000000 </v>
   <v>       0.13363439       0.88766222       0.75000000 </v>
   <v>       0.38639869       0.86594393       0.75000000 </v>
   <v>       0.63363439       0.88766222       0.75000000 </v>
   <v>       0.88639869       0.86594393       0.75000000 </v>
   <v>       0.13707715       0.11178353       0.99984351 </v>
   <v>       0.38747659       0.13767430       0.99995388 </v>
   <v>       0.63707715       0.11178353       0.99984351 </v>
   <v>       0.88747659       0.13767430       0.99995388 </v>
   <v>       0.11518880       0.36343023       0.00697442 </v>
   <v>       0.36295564       0.38351820       0.01141544 </v>
   <v>       0.61518880       0.36343023       0.00697442 </v>
   <v>       0.86295564       0.38351820       0.01141544 </v>
   <v>       0.13415119       0.61448955       0.99763501 </v>
   <v>       0.38450134       0.63498978       0.99751072 </v>
   <v>       0.63415119       0.61448955       0.99763501 </v>
   <v>       0.88450134       0.63498978       0.99751072 </v>
   <v>       0.11258185       0.86699496       0.01138279 </v>
   <v>       0.36592450       0.88681995       0.00696255 </v>
   <v>       0.61258185       0.86699496       0.01138279 </v>
   <v>       0.86592450       0.88681995       0.00696255 </v>
  </varray>
 </structure>
 <calculation>
  <scstep>
   <time name="dav">  144.03  144.04</time>
   <time name="total">  146.50  146.61</time>
   <energy>
    <i name="alphaZ">   5609.55529118 </i>
    <i name="ewald"> -61147.99886838 </i>
    <i name="hartreedc"> -16341.22303814 </i>
    <i name="XCdc">   2963.28467691 </i>
    <i name="pawpsdc"> 113570.10379370 </i>
    <i name="pawaedc">-112470.19917515 </i>
    <i name="eentropy">     -0.00000000 </i>
    <i name="bandstr">  -7088.40730192 </i>
    <i name="atom">  73783.44779670 </i>
    <i name="e_fr_energy">  -1121.43682511 </i>
    <i name="e_wo_entrp">  -1121.43682511 </i>
    <i name="e_0_energy">  -1121.43682511 </i>
   </energy>
  </scstep>
  <scstep>
   <time name="diag">   16.63   16.63</time>
   <time name="diis">   14.70   14.70</time>
   <time name="orth">    9.44    9.44</time>
   <time name="total">   43.25   43.26</time>
   <energy>
    <i name="e_fr_energy">  -1121.43682709 </i>
    <i name="e_wo_entrp">  -1121.43682709 </i>
    <i name="e_0_energy">  -1121.43682709 </i>
   </energy>
  </scstep>
  <scstep>
   <time name="diag">   16.64   16.64</time>
   <time name="diis">   13.30   13.30</time>
   <time name="orth">    9.46    9.46</time>
   <time name="total">   41.86   41.92</time>
   <energy>
    <i name="e_fr_energy">  -1121.43682784 </i>
    <i name="e_wo_entrp">  -1121.43682784 </i>
    <i name="e_0_energy">  -1121.43682784 </i>
   </energy>
  </scstep>
  <scstep>
   <time name="diag">   16.57   16.59</time>
   <time name="diis">   12.60   12.60</time>
   <time name="orth">    9.44    9.44</time>
   <time name="total">   41.07   41.18</time>
   <energy>
    <i name="e_fr_energy">  -1121.43682947 </i>
    <i name="e_wo_entrp">  -1121.43682947 </i>
    <i name="e_0_energy">  -1121.43682947 </i>
   </energy>
  </scstep>
  <scstep>
   <time name="diag">   16.60   16.61</time>
   <time name="diis">   12.31   12.32</time>
   <time name="orth">    9.45    9.45</time>
   <time name="total">   40.82   40.93</time>
   <energy>
    <i name="e_fr_energy">  -1121.43682967 </i>
    <i name="e_wo_entrp">  -1121.43682967 </i>
    <i name="e_0_energy">  -1121.43682967 </i>
   </energy>
  </scstep>
  <scstep>
   <time name="diag">   16.59   16.60</time>
   <time name="diis">   11.16   11.16</time>
   <time name="orth">    9.46    9.46</time>
   <time name="total">   39.67   39.72</time>
   <energy>
    <i name="e_fr_energy">  -1121.43682969 </i>
    <i name="e_wo_entrp">  -1121.43682969 </i>
    <i name="e_0_energy">  -1121.43682969 </i>
   </energy>
  </scstep>
  <scstep>
   <time name="diag">   16.61   16.61</time>
   <time name="diis">   10.90   10.90</time>
   <time name="orth">    9.44    9.45</time>
   <time name="total">   39.43   39.52</time>
   <energy>
    <i name="e_fr_energy">  -1121.43682972 </i>
    <i name="e_wo_entrp">  -1121.43682972 </i>
    <i name="e_0_energy">  -1121.43682972 </i>
   </energy>
  </scstep>
  <scstep>
   <time name="diag">   16.61   16.62</time>
   <time name="diis">   10.86   10.86</time>
   <time name="orth">    9.44    9.45</time>
   <time name="total">   37.50   37.54</time>
   <energy>
    <i name="alphaZ">   5609.55529118 </i>
    <i name="ewald"> -61147.99886838 </i>
    <i name="hartreedc"> -16341.21724469 </i>
    <i name="XCdc">   2963.28438198 </i>
    <i name="pawpsdc"> 113565.00344744 </i>
    <i name="pawaedc">-112465.09233051 </i>
    <i name="eentropy">     -0.00000000 </i>
    <i name="bandstr">  -7088.41930347 </i>
    <i name="atom">  73783.44779670 </i>
    <i name="e_fr_energy">  -1121.43682976 </i>
    <i name="e_wo_entrp">  -1121.43682976 </i>
    <i name="e_0_energy">  -1121.43682976 </i>
   </energy>
  </scstep>
  <structure>
   <crystal>
    <varray name="basis" >
     <v>      11.23680172      -0.00060367       0.00000000 </v>
     <v>      -0.00063030      11.26325946       0.00000000 </v>
     <v>       0.00000000       0.00000000      15.89571395 </v>
    </varray>
    <i name="volume">   2011.80944871 </i>
    <varray name="rec_basis" >
     <v>       0.08899329       0.00000498       0.00000000 </v>
     <v>       0.00000477       0.08878425       0.00000000 </v>
     <v>       0.00000000       0.00000000       0.06291004 </v>
    </varray>
   </crystal>
   <varray name="positions" >
    <v>       0.99913157       0.25365543       0.11677877 </v>
    <v>       0.99996606       0.24960874       0.63106126 </v>
    <v>       0.99694638       0.74238843       0.11991078 </v>
    <v>       0.99959757       0.75004883       0.63007077 </v>
    <v>       0.49913157       0.25365543       0.11677877 </v>
    <v>       0.49996606       0.24960874       0.63106126 </v>
    <v>       0.49694638       0.74238843       0.11991078 </v>
    <v>       0.49959757       0.75004883       0.63007077 </v>
    <v>       0.99913157       0.25365543       0.38322123 </v>
    <v>       0.99996606       0.24960874       0.86893874 </v>
    <v>       0.99694638       0.74238843       0.38008922 </v>
    <v>       0.99959757       0.75004883       0.86992923 </v>
    <v>       0.49913157       0.25365543       0.38322123 </v>
    <v>       0.49996606       0.24960874       0.86893874 </v>
    <v>       0.49694638       0.74238843       0.38008922 </v>
    <v>       0.49959757       0.75004883       0.86992923 </v>
    <v>       0.24900522       0.99604694       0.11674934 </v>
    <v>       0.25002691       0.00014791       0.63098101 </v>
    <v>       0.24715697       0.50810162       0.11993597 </v>
    <v>       0.24954063       0.49995688       0.63013809 </v>
    <v>       0.74900522       0.99604694       0.11674934 </v>
    <v>       0.75002691       0.00014791       0.63098101 </v>
    <v>       0.74715697       0.50810162       0.11993597 </v>
    <v>       0.74954063       0.49995688       0.63013809 </v>
    <v>       0.24900522       0.99604694       0.38325066 </v>
    <v>       0.25002691       0.00014791       0.86901899 </v>
    <v>       0.24715697       0.50810162       0.38006403 </v>
    <v>       0.24954063       0.49995688       0.86986191 </v>
    <v>       0.74900522       0.99604694       0.38325066 </v>
    <v>       0.75002691       0.00014791       0.86901899 </v>
    <v>       0.74715697       0.50810162       0.38006403 </v>
    <v>       0.74954063       0.49995688       0.86986191 </v>
    <v>       0.99950753       0.00136130       0.00006978 </v>
    <v>       0.99950753       0.00136130       0.49993022 </v>
    <v>       0.49950753       0.00136130       0.00006978 </v>
    <v>       0.49950753       0.00136130       0.49993022 </v>
    <v>       0.24956510       0.24878148       0.99857120 </v>
    <v>       0.49890865       0.49869863       0.75000000 </v>
    <v>       0.74903013       0.75041014       0.99807243 </v>
    <v>       0.99890865       0.49869863       0.75000000 </v>
    <v>       0.24903013       0.75041014       0.99807243 </v>
    <v>       0.49979384       0.99886017       0.75000000 </v>
    <v>       0.24956510       0.24878148       0.50142880 </v>
    <v>       0.25123007       0.74624024       0.25000000 </v>
    <v>       0.74956510       0.24878148       0.50142880 </v>
    <v>       0.49909050       0.49961629       0.50044395 </v>
    <v>       0.99909050       0.49961629       0.99955605 </v>
    <v>       0.99909050       0.49961629       0.50044395 </v>
    <v>       0.74956510       0.24878148       0.99857120 </v>
    <v>       0.74903013       0.75041014       0.50192757 </v>
    <v>       0.00142975       0.50376556       0.25000000 </v>
    <v>       0.99979384       0.99886017       0.75000000 </v>
    <v>       0.75123007       0.74624024       0.25000000 </v>
    <v>       0.24903013       0.75041014       0.50192757 </v>
    <v>       0.50142975       0.50376556       0.25000000 </v>
    <v>       0.49909050       0.49961629       0.99955605 </v>
    <v>       0.24892605       0.75140599       0.75000000 </v>
    <v>       0.00782696       0.96998750       0.25000000 </v>
    <v>       0.25770659       0.27990770       0.25000000 </v>
    <v>       0.24968144       0.25082925       0.75000000 </v>
    <v>       0.75770659       0.27990770       0.25000000 </v>
    <v>       0.74968144       0.25082925       0.75000000 </v>
    <v>       0.50782696       0.96998750       0.25000000 </v>
    <v>       0.74892605       0.75140599       0.75000000 </v>
    <v>       0.99374251       0.02784751       0.13855049 </v>
    <v>       0.99958707       0.99550809       0.62162342 </v>
    <v>       0.00116642       0.50729005       0.12559744 </v>
    <v>       0.99693374       0.49140772       0.62271799 </v>
    <v>       0.49374251       0.02784751       0.13855049 </v>
    <v>       0.49958707       0.99550809       0.62162342 </v>
    <v>       0.50116642       0.50729005       0.12559744 </v>
    <v>       0.49693374       0.49140772       0.62271799 </v>
    <v>       0.99374251       0.02784751       0.36144951 </v>
    <v>       0.99958707       0.99550809       0.87837658 </v>
    <v>       0.00116642       0.50729005       0.37440256 </v>
    <v>       0.99693374       0.49140772       0.87728201 </v>
    <v>       0.49374251       0.02784751       0.36144951 </v>
    <v>       0.49958707       0.99550809       0.87837658 </v>
    <v>       0.50116642       0.50729005       0.37440256 </v>
    <v>       0.49693374       0.49140772       0.87728201 </v>
    <v>       0.24304382       0.22080098       0.36052386 </v>
    <v>       0.24961550       0.25482428       0.87895652 </v>
    <v>       0.25130147       0.74268317       0.37421004 </v>
    <v>       0.24656211       0.75940421       0.87801043 </v>
    <v>       0.74304382       0.22080098       0.36052386 </v>
    <v>       0.74961550       0.25482428       0.87895652 </v>
    <v>       0.75130147       0.74268317       0.37421004 </v>
    <v>       0.74656211       0.75940421       0.87801043 </v>
    <v>       0.24304382       0.22080098       0.13947614 </v>
    <v>       0.24961550       0.25482428       0.62104348 </v>
    <v>       0.25130147       0.74268317       0.12578996 </v>
    <v>       0.24656211       0.75940421       0.62198957 </v>
    <v>       0.74304382       0.22080098       0.13947614 </v>
    <v>       0.74961550       0.25482428       0.62104348 </v>
    <v>       0.75130147       0.74268317       0.12578996 </v>
    <v>       0.74656211       0.75940421       0.62198957 </v>
    <v>       0.14960449       0.40626935       0.25000000 </v>
    <v>       0.41174960       0.34626747       0.25000000 </v>
    <v>       0.64960449       0.40626935       0.25000000 </v>
    <v>       0.91174960       0.34626747       0.25000000 </v>
    <v>       0.10297503       0.65026924       0.25000000 </v>
    <v>       0.35316104       0.59963710       0.25000000 </v>
    <v>       0.60297503       0.65026924       0.25000000 </v>
    <v>       0.85316104       0.59963710       0.25000000 </v>
    <v>       0.16156331       0.90363753       0.25000000 </v>
    <v>       0.39944908       0.84453381       0.25000000 </v>
    <v>       0.66156331       0.90363753       0.25000000 </v>
    <v>       0.89944908       0.84453381       0.25000000 </v>
    <v>       0.13707715       0.11178353       0.50015649 </v>
    <v>       0.38747659       0.13767430       0.50004612 </v>
    <v>       0.63707715       0.11178353       0.50015649 </v>
    <v>       0.88747659       0.13767430       0.50004612 </v>
    <v>       0.11518880       0.36343023       0.49302558 </v>
    <v>       0.36295564       0.38351820       0.48858456 </v>
    <v>       0.61518880       0.36343023       0.49302558 </v>
    <v>       0.86295564       0.38351820       0.48858456 </v>
    <v>       0.13415119       0.61448955       0.50236499 </v>
    <v>       0.38450134       0.63498978       0.50248928 </v>
    <v>       0.63415119       0.61448955       0.50236499 </v>
    <v>       0.88450134       0.63498978       0.50248928 </v>
    <v>       0.11258185       0.86699496       0.48861721 </v>
    <v>       0.36592450       0.88681995       0.49303745 </v>
    <v>       0.61258185       0.86699496       0.48861721 </v>
    <v>       0.86592450       0.88681995       0.49303745 </v>
    <v>       0.11431308       0.13391572       0.75000000 </v>
    <v>       0.36632663       0.11430985       0.75000000 </v>
    <v>       0.61431308       0.13391572       0.75000000 </v>
    <v>       0.86632663       0.11430985       0.75000000 </v>
    <v>       0.13428880       0.38647222       0.75000000 </v>
    <v>       0.38543948       0.36467581       0.75000000 </v>
    <v>       0.63428880       0.38647222       0.75000000 </v>
    <v>       0.88543948       0.36467581       0.75000000 </v>
    <v>       0.11216993       0.63361491       0.75000000 </v>
    <v>       0.36467459       0.61391480       0.75000000 </v>
    <v>       0.61216993       0.63361491       0.75000000 </v>
    <v>       0.86467459       0.61391480       0.75000000 </v>
    <v>       0.13363439       0.88766222       0.75000000 </v>
    <v>       0.38639869       0.86594393       0.75000000 </v>
    <v>       0.63363439       0.88766222       0.75000000 </v>
    <v>       0.88639869       0.86594393       0.75000000 </v>
    <v>       0.13707715       0.11178353       0.99984351 </v>
    <v>       0.38747659       0.13767430       0.99995388 </v>
    <v>       0.63707715       0.11178353       0.99984351 </v>
    <v>       0.88747659       0.13767430       0.99995388 </v>
    <v>       0.11518880       0.36343023       0.00697442 </v>
    <v>       0.36295564       0.38351820       0.01141544 </v>
    <v>       0.61518880       0.36343023       0.00697442 </v>
    <v>       0.86295564       0.38351820       0.01141544 </v>
    <v>       0.13415119       0.61448955       0.99763501 </v>
    <v>       0.38450134       0.63498978       0.99751072 </v>
    <v>       0.63415119       0.61448955       0.99763501 </v>
    <v>       0.88450134       0.63498978       0.99751072 </v>
    <v>       0.11258185       0.86699496       0.01138279 </v>
    <v>       0.36592450       0.88681995       0.00696255 </v>
    <v>       0.61258185       0.86699496       0.01138279 </v>
    <v>       0.86592450       0.88681995       0.00696255 </v>
   </varray>
  </structure>
  <varray name="forces" >
   <v>       0.01747959      -0.03881056       0.01161406 </v>
   <v>       0.00204513       0.00543118       0.00298064 </v>
   <v>      -0.00410193      -0.02950466      -0.03111003 </v>
   <v>      -0.01464243       0.01612808       0.00004103 </v>
   <v>       0.01747959      -0.03881056       0.01161406 </v>
   <v>       0.00204513       0.00543118       0.00298064 </v>
   <v>      -0.00410193      -0.02950466      -0.03111003 </v>
   <v>      -0.01464243       0.01612808       0.00004103 </v>
   <v>       0.01747959      -0.03881056      -0.01161406 </v>
   <v>       0.00204513       0.00543118      -0.00298064 </v>
   <v>      -0.00410193      -0.02950466       0.03111003 </v>
   <v>      -0.01464243       0.01612808      -0.00004103 </v>
   <v>       0.01747959      -0.03881056      -0.01161406 </v>
   <v>       0.00204513       0.00543118      -0.00298064 </v>
   <v>      -0.00410193      -0.02950466       0.03111003 </v>
   <v>      -0.01464243       0.01612808      -0.00004103 </v>
   <v>       0.01019344       0.03716779       0.01393798 </v>
   <v>      -0.00559594       0.02521364      -0.01049424 </v>
   <v>      -0.00791426       0.03111249      -0.02670875 </v>
   <v>      -0.01444727      -0.04280429       0.01773655 </v>
   <v>       0.01019344       0.03716779       0.01393798 </v>
   <v>      -0.00559594       0.02521364      -0.01049424 </v>
   <v>      -0.00791426       0.03111249      -0.02670875 </v>
   <v>      -0.01444727      -0.04280429       0.01773655 </v>
   <v>       0.01019344       0.03716779      -0.01393798 </v>
   <v>      -0.00559594       0.02521364       0.01049424 </v>
   <v>      -0.00791426       0.03111249       0.02670875 </v>
   <v>      -0.01444727      -0.04280429      -0.01773655 </v>
   <v>       0.01019344       0.03716779      -0.01393798 </v>
   <v>      -0.00559594       0.02521364       0.01049424 </v>
   <v>      -0.00791426       0.03111249       0.02670875 </v>
   <v>      -0.01444727      -0.04280429      -0.01773655 </v>
   <v>       0.00915320       0.02096154      -0.01572369 </v>
   <v>       0.00915320       0.02096154       0.01572369 </v>
   <v>       0.00915320       0.02096154      -0.01572369 </v>
   <v>       0.00915320       0.02096154       0.01572369 </v>
   <v>      -0.01993043      -0.03344195      -0.07587005 </v>
   <v>       0.01148349      -0.08850728       0.00000000 </v>
   <v>      -0.01163565       0.02289067       0.01066817 </v>
   <v>       0.01148349      -0.08850728       0.00000000 </v>
   <v>      -0.01163565       0.02289067       0.01066817 </v>
   <v>       0.00245380       0.06889206       0.00000000 </v>
   <v>      -0.01993043      -0.03344195       0.07587005 </v>
   <v>      -0.02140271      -0.03601711       0.00000000 </v>
   <v>      -0.01993043      -0.03344195       0.07587005 </v>
   <v>      -0.00478597      -0.01799770       0.07067144 </v>
   <v>      -0.00478597      -0.01799770      -0.07067144 </v>
   <v>      -0.00478597      -0.01799770       0.07067144 </v>
   <v>      -0.01993043      -0.03344195      -0.07587005 </v>
   <v>      -0.01163565       0.02289067      -0.01066817 </v>
   <v>      -0.03714486       0.00882271       0.00000000 </v>
   <v>       0.00245380       0.06889206       0.00000000 </v>
   <v>      -0.02140271      -0.03601711       0.00000000 </v>
   <v>      -0.01163565       0.02289067      -0.01066817 </v>
   <v>      -0.03714486       0.00882271       0.00000000 </v>
   <v>      -0.00478597      -0.01799770      -0.07067144 </v>
   <v>       0.00127722      -0.02489092       0.00000000 </v>
   <v>      -0.02301544      -0.02435753       0.00000000 </v>
   <v>      -0.04663451       0.01924966       0.00000000 </v>
   <v>       0.00937290       0.03541242       0.00000000 </v>
   <v>      -0.04663451       0.01924966       0.00000000 </v>
   <v>       0.00937290       0.03541242       0.00000000 </v>
   <v>      -0.02301544      -0.02435753       0.00000000 </v>
   <v>       0.00127722      -0.02489092       0.00000000 </v>
   <v>       0.01322619      -0.00557634       0.04869925 </v>
   <v>       0.00423869       0.03542619       0.01513204 </v>
   <v>      -0.00248884      -0.00453982      -0.00036128 </v>
   <v>      -0.00560019       0.04108398      -0.06062513 </v>
   <v>       0.01322619      -0.00557634       0.04869925 </v>
   <v>       0.00423869       0.03542619       0.01513204 </v>
   <v>      -0.00248884      -0.00453982      -0.00036128 </v>
   <v>      -0.00560019       0.04108398      -0.06062513 </v>
   <v>       0.01322619      -0.00557634      -0.04869925 </v>
   <v>       0.00423869       0.03542619      -0.01513204 </v>
   <v>      -0.00248884      -0.00453982       0.00036128 </v>
   <v>      -0.00560019       0.04108398       0.06062513 </v>
   <v>       0.01322619      -0.00557634      -0.04869925 </v>
   <v>       0.00423869       0.03542619      -0.01513204 </v>
   <v>      -0.00248884      -0.00453982       0.00036128 </v>
   <v>      -0.00560019       0.04108398       0.06062513 </v>
   <v>       0.01789934      -0.00295136      -0.01466178 </v>
   <v>       0.00977168      -0.03999171       0.07089963 </v>
   <v>      -0.00605427       0.01309572       0.03747677 </v>
   <v>       0.00495250      -0.03728284      -0.01029889 </v>
   <v>       0.01789934      -0.00295136      -0.01466178 </v>
   <v>       0.00977168      -0.03999171       0.07089963 </v>
   <v>      -0.00605427       0.01309572       0.03747677 </v>
   <v>       0.00495250      -0.03728284      -0.01029889 </v>
   <v>       0.01789934      -0.00295136       0.01466178 </v>
   <v>       0.00977168      -0.03999171      -0.07089963 </v>
   <v>      -0.00605427       0.01309572      -0.03747677 </v>
   <v>       0.00495250      -0.03728284       0.01029889 </v>
   <v>       0.01789934      -0.00295136       0.01466178 </v>
   <v>       0.00977168      -0.03999171      -0.07089963 </v>
   <v>      -0.00605427       0.01309572      -0.03747677 </v>
   <v>       0.00495250      -0.03728284       0.01029889 </v>
   <v>      -0.00695045      -0.01170421       0.00000000 </v>
   <v>       0.07107953       0.03854320       0.00000000 </v>
   <v>      -0.00695045      -0.01170421       0.00000000 </v>
   <v>       0.07107953       0.03854320       0.00000000 </v>
   <v>      -0.01399305       0.00980799       0.00000000 </v>
   <v>       0.02517039      -0.02157445       0.00000000 </v>
   <v>      -0.01399305       0.00980799       0.00000000 </v>
   <v>       0.02517039      -0.02157445       0.00000000 </v>
   <v>       0.02128557       0.00441860       0.00000000 </v>
   <v>       0.01130249       0.01951238       0.00000000 </v>
   <v>       0.02128557       0.00441860       0.00000000 </v>
   <v>       0.01130249       0.01951238       0.00000000 </v>
   <v>      -0.01301443       0.04934649       0.01779308 </v>
   <v>      -0.04323956      -0.01516719       0.01063670 </v>
   <v>      -0.01301443       0.04934649       0.01779308 </v>
   <v>      -0.04323956      -0.01516719       0.01063670 </v>
   <v>       0.03227967       0.01360989       0.01344464 </v>
   <v>       0.01744914      -0.03714222       0.00607216 </v>
   <v>       0.03227967       0.01360989       0.01344464 </v>
   <v>       0.01744914      -0.03714222       0.00607216 </v>
   <v>      -0.00191432       0.02071779       0.01678447 </v>
   <v>      -0.01940664       0.00107188       0.01594925 </v>
   <v>      -0.00191432       0.02071779       0.01678447 </v>
   <v>      -0.01940664       0.00107188       0.01594925 </v>
   <v>       0.05473679      -0.00188263       0.01203890 </v>
   <v>      -0.00639638      -0.03186289       0.01910735 </v>
   <v>       0.05473679      -0.00188263       0.01203890 </v>
   <v>      -0.00639638      -0.03186289       0.01910735 </v>
   <v>      -0.02369948      -0.01843535       0.00000000 </v>
   <v>       0.00234033      -0.01171227       0.00000000 </v>
   <v>      -0.02369948      -0.01843535       0.00000000 </v>
   <v>       0.00234033      -0.01171227       0.00000000 </v>
   <v>      -0.01355368      -0.01383927       0.00000000 </v>
   <v>      -0.00822148       0.00209407       0.00000000 </v>
   <v>      -0.01355368      -0.01383927       0.00000000 </v>
   <v>      -0.00822148       0.00209407       0.00000000 </v>
   <v>       0.06579987       0.06246801       0.00000000 </v>
   <v>      -0.04141060       0.07128365       0.00000000 </v>
   <v>       0.06579987       0.06246801       0.00000000 </v>
   <v>      -0.04141060       0.07128365       0.00000000 </v>
   <v>       0.02642883      -0.05070332       0.00000000 </v>
   <v>      -0.03648190      -0.02736541       0.00000000 </v>
   <v>       0.02642883      -0.05070332       0.00000000 </v>
   <v>      -0.03648190      -0.02736541       0.00000000 </v>
   <v>      -0.01301443       0.04934649      -0.01779308 </v>
   <v>      -0.04323956      -0.01516719      -0.01063670 </v>
   <v>      -0.01301443       0.04934649      -0.01779308 </v>
   <v>      -0.04323956      -0.01516719      -0.01063670 </v>
   <v>       0.03227967       0.01360989      -0.01344464 </v>
   <v>       0.01744914      -0.03714222      -0.00607216 </v>
   <v>       0.03227967       0.01360989      -0.01344464 </v>
   <v>       0.01744914      -0.03714222      -0.00607216 </v>
   <v>      -0.00191432       0.02071779      -0.01678447 </v>
   <v>      -0.01940664       0.00107188      -0.01594925 </v>
   <v>      -0.00191432       0.02071779      -0.01678447 </v>
   <v>      -0.01940664       0.00107188      -0.01594925 </v>
   <v>       0.05473679      -0.00188263      -0.01203890 </v>
   <v>      -0.00639638      -0.03186289      -0.01910735 </v>
   <v>       0.05473679      -0.00188263      -0.01203890 </v>
   <v>      -0.00639638      -0.03186289      -0.01910735 </v>
  </varray>
  <varray name="stress" >
   <v>      -0.22513844       0.15479138       0.00000000 </v>
   <v>       0.15479059       0.33860747       0.00000000 </v>
   <v>       0.00000000       0.00000000      -0.57596267 </v>
  </varray>
  <energy>
   <i name="e_fr_energy">  -1121.43682976 </i>
   <i name="e_wo_entrp">  -1121.43682976 </i>
   <i name="e_0_energy">     -0.00000000 </i>
  </energy>
  <time name="totalsc">  521.50  523.71</time>
 </calculation>
 <calculation>
  <scstep>
   <time name="dav">  142.28  142.28</time>
   <time name="total">  144.75  144.81</time>
   <energy>
    <i name="alphaZ">   5610.56304725 </i>
    <i name="ewald"> -61150.49969744 </i>
    <i name="hartreedc"> -16343.04375113 </i>
    <i name="XCdc">   2963.51658384 </i>
    <i name="pawpsdc"> 113565.00498126 </i>
    <i name="pawaedc">-112465.09392088 </i>
    <i name="eentropy">     -0.00000000 </i>
    <i name="bandstr">  -7085.33229075 </i>
    <i name="atom">  73783.44779670 </i>
    <i name="e_fr_energy">  -1121.43725116 </i>
    <i name="e_wo_entrp">  -1121.43725116 </i>
    <i name="e_0_energy">  -1121.43725116 </i>
   </energy>
  </scstep>
  <scstep>
   <time name="diag">   16.62   16.62</time>
   <time name="diis">   25.86   25.86</time>
   <time name="orth">    9.40    9.42</time>
   <time name="total">   54.37   54.39</time>
   <energy>
    <i name="e_fr_energy">  -1121.44343914 </i>
    <i name="e_wo_entrp">  -1121.44343914 </i>
    <i name="e_0_energy">  -1121.44343914 </i>
   </energy>
  </scstep>
  <scstep>
   <time name="diag">   16.61   16.62</time>
   <time name="diis">   27.95   27.94</time>
   <time name="orth">    9.41    9.41</time>
   <time name="total">   56.47   56.52</time>
   <energy>
    <i name="e_fr_energy">  -1121.44305967 </i>
    <i name="e_wo_entrp">  -1121.44305967 </i>
    <i name="e_0_energy">  -1121.44305967 </i>
   </energy>
  </scstep>
  <scstep>
   <time name="diag">   16.63   16.64</time>
   <time name="diis">   26.14   26.14</time>
   <time name="orth">    9.44    9.44</time>
   <time name="total">   54.70   54.74</time>
   <energy>
    <i name="e_fr_energy">  -1121.44226444 </i>
    <i name="e_wo_entrp">  -1121.44226444 </i>
    <i name="e_0_energy">  -1121.44226444 </i>
   </energy>
  </scstep>
  <scstep>
   <time name="diag">   16.62   16.62</time>
   <time name="diis">   24.56   24.56</time>
   <time name="orth">    9.41    9.41</time>
   <time name="total">   53.10   53.17</time>
   <energy>
    <i name="e_fr_energy">  -1121.44206592 </i>
    <i name="e_wo_entrp">  -1121.44206592 </i>
    <i name="e_0_energy">  -1121.44206592 </i>
   </energy>
  </scstep>
  <scstep>
   <time name="diag">   16.63   16.63</time>
   <time name="diis">   17.60   17.60</time>
   <time name="orth">    9.42    9.43</time>
   <time name="total">   46.15   46.24</time>
   <energy>
    <i name="e_fr_energy">  -1121.44205409 </i>
    <i name="e_wo_entrp">  -1121.44205409 </i>
    <i name="e_0_energy">  -1121.44205409 </i>
   </energy>
  </scstep>
  <scstep>
   <time name="diag">   16.61   16.63</time>
   <time name="diis">   16.14   16.14</time>
   <time name="orth">    9.44    9.44</time>
   <time name="total">   44.67   44.78</time>
   <energy>
    <i name="e_fr_energy">  -1121.44205461 </i>
    <i name="e_wo_entrp">  -1121.44205461 </i>
    <i name="e_0_energy">  -1121.44205461 </i>
   </energy>
  </scstep>
  <scstep>
   <time name="diag">   16.64   16.65</time>
   <time name="diis">   16.00   16.00</time>
   <time name="orth">    9.43    9.43</time>
   <time name="total">   42.65   42.70</time>
   <energy>
    <i name="alphaZ">   5610.56304725 </i>
    <i name="ewald"> -61150.49969744 </i>
    <i name="hartreedc"> -16340.33783371 </i>
    <i name="XCdc">   2963.35848068 </i>
    <i name="pawpsdc"> 113579.05427481 </i>
    <i name="pawaedc">-112479.19273426 </i>
    <i name="eentropy">     -0.00000000 </i>
    <i name="bandstr">  -7087.83539025 </i>
    <i name="atom">  73783.44779670 </i>
    <i name="e_fr_energy">  -1121.44205623 </i>
    <i name="e_wo_entrp">  -1121.44205623 </i>
    <i name="e_0_energy">  -1121.44205623 </i>
   </energy>
  </scstep>
  <structure>
   <crystal>
    <varray name="basis" >
     <v>      11.23581931       0.00007167       0.00000000 </v>
     <v>       0.00004676      11.26474038       0.00000000 </v>
     <v>       0.00000000       0.00000000      15.89215880 </v>
    </varray>
    <i name="volume">   2011.44809225 </i>
    <varray name="rec_basis" >
     <v>       0.08900108      -0.00000037       0.00000000 </v>
     <v>      -0.00000057       0.08877257       0.00000000 </v>
     <v>       0.00000000       0.00000000       0.06292411 </v>
    </varray>
   </crystal>
   <varray name="positions" >
    <v>       0.99920660       0.25348920       0.11681401 </v>
    <v>       0.99997485       0.24963201       0.63107031 </v>
    <v>       0.99692876       0.74226205       0.11981636 </v>
    <v>       0.99953471       0.75011791       0.63007089 </v>
    <v>       0.49920660       0.25348920       0.11681401 </v>
    <v>       0.49997485       0.24963201       0.63107031 </v>
    <v>       0.49692876       0.74226205       0.11981636 </v>
    <v>       0.49953471       0.75011791       0.63007089 </v>
    <v>       0.99920660       0.25348920       0.38318599 </v>
    <v>       0.99997485       0.24963201       0.86892969 </v>
    <v>       0.99692876       0.74226205       0.38018364 </v>
    <v>       0.99953471       0.75011791       0.86992911 </v>
    <v>       0.49920660       0.25348920       0.38318599 </v>
    <v>       0.49997485       0.24963201       0.86892969 </v>
    <v>       0.49692876       0.74226205       0.38018364 </v>
    <v>       0.49953471       0.75011791       0.86992911 </v>
    <v>       0.24904899       0.99620614       0.11679164 </v>
    <v>       0.25000289       0.00025591       0.63094916 </v>
    <v>       0.24712300       0.50823488       0.11985491 </v>
    <v>       0.24947859       0.49977354       0.63019192 </v>
    <v>       0.74904899       0.99620614       0.11679164 </v>
    <v>       0.75000289       0.00025591       0.63094916 </v>
    <v>       0.74712300       0.50823488       0.11985491 </v>
    <v>       0.74947859       0.49977354       0.63019192 </v>
    <v>       0.24904899       0.99620614       0.38320836 </v>
    <v>       0.25000289       0.00025591       0.86905084 </v>
    <v>       0.24712300       0.50823488       0.38014509 </v>
    <v>       0.24947859       0.49977354       0.86980808 </v>
    <v>       0.74904899       0.99620614       0.38320836 </v>
    <v>       0.75000289       0.00025591       0.86905084 </v>
    <v>       0.74712300       0.50823488       0.38014509 </v>
    <v>       0.74947859       0.49977354       0.86980808 </v>
    <v>       0.99954684       0.00145108       0.00002206 </v>
    <v>       0.99954684       0.00145108       0.49997794 </v>
    <v>       0.49954684       0.00145108       0.00002206 </v>
    <v>       0.49954684       0.00145108       0.49997794 </v>
    <v>       0.24947953       0.24863824       0.99834094 </v>
    <v>       0.49895793       0.49831954       0.75000000 </v>
    <v>       0.74898018       0.75050818       0.99810480 </v>
    <v>       0.99895793       0.49831954       0.75000000 </v>
    <v>       0.24898018       0.75050818       0.99810480 </v>
    <v>       0.49980439       0.99915525       0.75000000 </v>
    <v>       0.24947953       0.24863824       0.50165906 </v>
    <v>       0.25113817       0.74608596       0.25000000 </v>
    <v>       0.74947953       0.24863824       0.50165906 </v>
    <v>       0.49906995       0.49953920       0.50065843 </v>
    <v>       0.99906995       0.49953920       0.99934157 </v>
    <v>       0.99906995       0.49953920       0.50065843 </v>
    <v>       0.74947953       0.24863824       0.99834094 </v>
    <v>       0.74898018       0.75050818       0.50189520 </v>
    <v>       0.00127028       0.50380334       0.25000000 </v>
    <v>       0.99980439       0.99915525       0.75000000 </v>
    <v>       0.75113817       0.74608596       0.25000000 </v>
    <v>       0.24898018       0.75050818       0.50189520 </v>
    <v>       0.50127028       0.50380334       0.25000000 </v>
    <v>       0.49906995       0.49953920       0.99934157 </v>
    <v>       0.24893153       0.75129938       0.75000000 </v>
    <v>       0.00772814       0.96988317       0.25000000 </v>
    <v>       0.25750638       0.27999014       0.25000000 </v>
    <v>       0.24972169       0.25098093       0.75000000 </v>
    <v>       0.75750638       0.27999014       0.25000000 </v>
    <v>       0.74972169       0.25098093       0.75000000 </v>
    <v>       0.50772814       0.96988317       0.25000000 </v>
    <v>       0.74893153       0.75129938       0.75000000 </v>
    <v>       0.99379929       0.02782363       0.13869829 </v>
    <v>       0.99960527       0.99565983       0.62166934 </v>
    <v>       0.00115573       0.50727060       0.12559635 </v>
    <v>       0.99690970       0.49158368       0.62253400 </v>
    <v>       0.49379929       0.02782363       0.13869829 </v>
    <v>       0.49960527       0.99565983       0.62166934 </v>
    <v>       0.50115573       0.50727060       0.12559635 </v>
    <v>       0.49690970       0.49158368       0.62253400 </v>
    <v>       0.99379929       0.02782363       0.36130171 </v>
    <v>       0.99960527       0.99565983       0.87833066 </v>
    <v>       0.00115573       0.50727060       0.37440365 </v>
    <v>       0.99690970       0.49158368       0.87746600 </v>
    <v>       0.49379929       0.02782363       0.36130171 </v>
    <v>       0.49960527       0.99565983       0.87833066 </v>
    <v>       0.50115573       0.50727060       0.37440365 </v>
    <v>       0.49690970       0.49158368       0.87746600 </v>
    <v>       0.24312066       0.22078834       0.36047936 </v>
    <v>       0.24965744       0.25465299       0.87917170 </v>
    <v>       0.25127548       0.74273926       0.37432378 </v>
    <v>       0.24658337       0.75924452       0.87797917 </v>
    <v>       0.74312066       0.22078834       0.36047936 </v>
    <v>       0.74965744       0.25465299       0.87917170 </v>
    <v>       0.75127548       0.74273926       0.37432378 </v>
    <v>       0.74658337       0.75924452       0.87797917 </v>
    <v>       0.24312066       0.22078834       0.13952064 </v>
    <v>       0.24965744       0.25465299       0.62082830 </v>
    <v>       0.25127548       0.74273926       0.12567622 </v>
    <v>       0.24658337       0.75924452       0.62202083 </v>
    <v>       0.74312066       0.22078834       0.13952064 </v>
    <v>       0.74965744       0.25465299       0.62082830 </v>
    <v>       0.75127548       0.74273926       0.12567622 </v>
    <v>       0.74658337       0.75924452       0.62202083 </v>
    <v>       0.14957465       0.40621922       0.25000000 </v>
    <v>       0.41205478       0.34643257       0.25000000 </v>
    <v>       0.64957465       0.40621922       0.25000000 </v>
    <v>       0.91205478       0.34643257       0.25000000 </v>
    <v>       0.10291496       0.65031124       0.25000000 </v>
    <v>       0.35326909       0.59954470       0.25000000 </v>
    <v>       0.60291496       0.65031124       0.25000000 </v>
    <v>       0.85326909       0.59954470       0.25000000 </v>
    <v>       0.16165469       0.90365647       0.25000000 </v>
    <v>       0.39949761       0.84461739       0.25000000 </v>
    <v>       0.66165469       0.90365647       0.25000000 </v>
    <v>       0.89949761       0.84461739       0.25000000 </v>
    <v>       0.13702129       0.11199489       0.50021049 </v>
    <v>       0.38729095       0.13760933       0.50007840 </v>
    <v>       0.63702129       0.11199489       0.50021049 </v>
    <v>       0.88729095       0.13760933       0.50007840 </v>
    <v>       0.11532739       0.36348853       0.49306638 </v>
    <v>       0.36303055       0.38335912       0.48860298 </v>
    <v>       0.61532739       0.36348853       0.49306638 </v>
    <v>       0.86303055       0.38335912       0.48860298 </v>
    <v>       0.13414297       0.61457829       0.50241593 </v>
    <v>       0.38441802       0.63499437       0.50253769 </v>
    <v>       0.63414297       0.61457829       0.50241593 </v>
    <v>       0.88441802       0.63499437       0.50253769 </v>
    <v>       0.11281685       0.86698691       0.48865375 </v>
    <v>       0.36589703       0.88668347       0.49309544 </v>
    <v>       0.61281685       0.86698691       0.48865375 </v>
    <v>       0.86589703       0.88668347       0.49309544 </v>
    <v>       0.11421133       0.13383675       0.75000000 </v>
    <v>       0.36633667       0.11425969       0.75000000 </v>
    <v>       0.61421133       0.13383675       0.75000000 </v>
    <v>       0.86633667       0.11425969       0.75000000 </v>
    <v>       0.13423060       0.38641294       0.75000000 </v>
    <v>       0.38540418       0.36468478       0.75000000 </v>
    <v>       0.63423060       0.38641294       0.75000000 </v>
    <v>       0.88540418       0.36468478       0.75000000 </v>
    <v>       0.11245245       0.63388249       0.75000000 </v>
    <v>       0.36449682       0.61422011       0.75000000 </v>
    <v>       0.61245245       0.63388249       0.75000000 </v>
    <v>       0.86449682       0.61422011       0.75000000 </v>
    <v>       0.13374784       0.88744505       0.75000000 </v>
    <v>       0.38624205       0.86582671       0.75000000 </v>
    <v>       0.63374784       0.88744505       0.75000000 </v>
    <v>       0.88624205       0.86582671       0.75000000 </v>
    <v>       0.13702129       0.11199489       0.99978951 </v>
    <v>       0.38729095       0.13760933       0.99992160 </v>
    <v>       0.63702129       0.11199489       0.99978951 </v>
    <v>       0.88729095       0.13760933       0.99992160 </v>
    <v>       0.11532739       0.36348853       0.00693362 </v>
    <v>       0.36303055       0.38335912       0.01139702 </v>
    <v>       0.61532739       0.36348853       0.00693362 </v>
    <v>       0.86303055       0.38335912       0.01139702 </v>
    <v>       0.13414297       0.61457829       0.99758407 </v>
    <v>       0.38441802       0.63499437       0.99746231 </v>
    <v>       0.63414297       0.61457829       0.99758407 </v>
    <v>       0.88441802       0.63499437       0.99746231 </v>
    <v>       0.11281685       0.86698691       0.01134625 </v>
    <v>       0.36589703       0.88668347       0.00690456 </v>
    <v>       0.61281685       0.86698691       0.01134625 </v>
    <v>       0.86589703       0.88668347       0.00690456 </v>
   </varray>
  </structure>
  <varray name="forces" >
   <v>       0.00986133      -0.01239015       0.01980405 </v>
   <v>      -0.00317194      -0.01007758      -0.03169725 </v>
   <v>      -0.00605502      -0.02936422      -0.02496659 </v>
   <v>      -0.01585082       0.01763571       0.00837583 </v>
   <v>       0.00986133      -0.01239015       0.01980405 </v>
   <v>      -0.00317194      -0.01007758      -0.03169725 </v>
   <v>      -0.00605502      -0.02936422      -0.02496659 </v>
   <v>      -0.01585082       0.01763571       0.00837583 </v>
   <v>       0.00986133      -0.01239015      -0.01980405 </v>
   <v>      -0.00317194      -0.01007758       0.03169725 </v>
   <v>      -0.00605502      -0.02936422       0.02496659 </v>
   <v>      -0.01585082       0.01763571      -0.00837583 </v>
   <v>       0.00986133      -0.01239015      -0.01980405 </v>
   <v>      -0.00317194      -0.01007758       0.03169725 </v>
   <v>      -0.00605502      -0.02936422       0.02496659 </v>
   <v>      -0.01585082       0.01763571      -0.00837583 </v>
   <v>       0.01296447       0.02455932       0.02234340 </v>
   <v>      -0.00141043      -0.01536439      -0.00703006 </v>
   <v>      -0.00708029       0.01708705      -0.02421980 </v>
   <v>      -0.00651043       0.00933116      -0.01557383 </v>
   <v>       0.01296447       0.02455932       0.02234340 </v>
   <v>      -0.00141043      -0.01536439      -0.00703006 </v>
   <v>      -0.00708029       0.01708705      -0.02421980 </v>
   <v>      -0.00651043       0.00933116      -0.01557383 </v>
   <v>       0.01296447       0.02455932      -0.02234340 </v>
   <v>      -0.00141043      -0.01536439       0.00703006 </v>
   <v>      -0.00708029       0.01708705       0.02421980 </v>
   <v>      -0.00651043       0.00933116       0.01557383 </v>
   <v>       0.01296447       0.02455932      -0.02234340 </v>
   <v>      -0.00141043      -0.01536439       0.00703006 </v>
   <v>      -0.00708029       0.01708705       0.02421980 </v>
   <v>      -0.00651043       0.00933116       0.01557383 </v>
   <v>      -0.00748428      -0.02737339       0.02151401 </v>
   <v>      -0.00748428      -0.02737339      -0.02151401 </v>
   <v>      -0.00748428      -0.02737339       0.02151401 </v>
   <v>      -0.00748428      -0.02737339      -0.02151401 </v>
   <v>       0.01982553       0.03181453       0.08612670 </v>
   <v>      -0.02545701       0.13427536      -0.00000000 </v>
   <v>      -0.00445781      -0.00915405      -0.02797052 </v>
   <v>      -0.02545701       0.13427536      -0.00000000 </v>
   <v>      -0.00445781      -0.00915405      -0.02797052 </v>
   <v>       0.01917870      -0.11216440      -0.00000000 </v>
   <v>       0.01982553       0.03181453      -0.08612670 </v>
   <v>      -0.02008353      -0.00034058      -0.00000000 </v>
   <v>       0.01982553       0.03181453      -0.08612670 </v>
   <v>      -0.01616067       0.01355112      -0.07740841 </v>
   <v>      -0.01616067       0.01355112       0.07740841 </v>
   <v>      -0.01616067       0.01355112      -0.07740841 </v>
   <v>       0.01982553       0.03181453       0.08612670 </v>
   <v>      -0.00445781      -0.00915405       0.02797052 </v>
   <v>      -0.01593883      -0.03210282      -0.00000000 </v>
   <v>       0.01917870      -0.11216440      -0.00000000 </v>
   <v>      -0.02008353      -0.00034058      -0.00000000 </v>
   <v>      -0.00445781      -0.00915405       0.02797052 </v>
   <v>      -0.01593883      -0.03210282      -0.00000000 </v>
   <v>      -0.01616067       0.01355112       0.07740841 </v>
   <v>       0.00067207       0.00403703      -0.00000000 </v>
   <v>       0.01156899      -0.03280156      -0.00000000 </v>
   <v>       0.02520493       0.03431819      -0.00000000 </v>
   <v>       0.00316864      -0.03248646      -0.00000000 </v>
   <v>       0.02520493       0.03431819      -0.00000000 </v>
   <v>       0.00316864      -0.03248646      -0.00000000 </v>
   <v>       0.01156899      -0.03280156      -0.00000000 </v>
   <v>       0.00067207       0.00403703      -0.00000000 </v>
   <v>       0.00833136       0.01053926      -0.00829723 </v>
   <v>       0.00639668       0.04462320       0.01057786 </v>
   <v>       0.00029961       0.00101645      -0.02748409 </v>
   <v>      -0.00381260       0.01082317       0.08161128 </v>
   <v>       0.00833136       0.01053926      -0.00829723 </v>
   <v>       0.00639668       0.04462320       0.01057786 </v>
   <v>       0.00029961       0.00101645      -0.02748409 </v>
[...]
       <r>   -16.2208     0.0000    32.0000 </r>
       <r>   -16.0687     0.0000    32.0000 </r>
       <r>   -15.9167     0.0000    32.0000 </r>
       <r>   -15.7646     0.0000    32.0000 </r>
       <r>   -15.6125     0.0000    32.0000 </r>
       <r>   -15.4605     0.0000    32.0000 </r>
       <r>   -15.3084     0.0000    32.0000 </r>
       <r>   -15.1563     1.9412    32.2952 </r>
       <r>   -15.0043    31.0379    37.0150 </r>
       <r>   -14.8522    52.3505    44.9757 </r>
       <r>   -14.7001    47.0702    52.1335 </r>
       <r>   -14.5481    27.2261    56.2736 </r>
       <r>   -14.3960    38.1713    62.0782 </r>
       <r>   -14.2439    59.9396    71.1929 </r>
       <r>   -14.0919   108.3411    87.6679 </r>
       <r>   -13.9398   111.7540   104.6618 </r>
       <r>   -13.7877    78.1633   116.5478 </r>
       <r>   -13.6357    42.3187   122.9830 </r>
       <r>   -13.4836     6.6874   124.0000 </r>
       <r>   -13.3315     0.0003   124.0000 </r>
       <r>   -13.1795     0.0000   124.0000 </r>
       <r>   -13.0274     0.0000   124.0000 </r>
       <r>   -12.8753     0.0000   124.0000 </r>
       <r>   -12.7233     1.3030   124.1981 </r>
       <r>   -12.5712    45.4887   131.1154 </r>
       <r>   -12.4191   167.6755   156.6131 </r>
       <r>   -12.2671   139.1169   177.7680 </r>
       <r>   -12.1150   134.4488   198.2131 </r>
       <r>   -11.9630   108.6722   214.7384 </r>
       <r>   -11.8109    34.5048   219.9854 </r>
       <r>   -11.6588     0.0959   220.0000 </r>
       <r>   -11.5068     0.0000   220.0000 </r>
       <r>   -11.3547     0.0000   220.0000 </r>
       <r>   -11.2026     0.0000   220.0000 </r>
       <r>   -11.0506     0.0000   220.0000 </r>
       <r>   -10.8985     0.0000   220.0000 </r>
       <r>   -10.7464     0.0000   220.0000 </r>
       <r>   -10.5944     0.0000   220.0000 </r>
       <r>   -10.4423     0.0000   220.0000 </r>
       <r>   -10.2902     0.0000   220.0000 </r>
       <r>   -10.1382     0.0000   220.0000 </r>
       <r>    -9.9861     0.0000   220.0000 </r>
       <r>    -9.8340     0.0000   220.0000 </r>
       <r>    -9.6820     0.0000   220.0000 </r>
       <r>    -9.5299     0.0000   220.0000 </r>
       <r>    -9.3778     0.0000   220.0000 </r>
       <r>    -9.2258     0.0000   220.0000 </r>
       <r>    -9.0737     0.0000   220.0000 </r>
       <r>    -8.9216     0.0000   220.0000 </r>
       <r>    -8.7696     0.0000   220.0000 </r>
       <r>    -8.6175     0.0000   220.0000 </r>
       <r>    -8.4654     0.0000   220.0000 </r>
       <r>    -8.3134     0.0000   220.0000 </r>
       <r>    -8.1613     0.0000   220.0000 </r>
       <r>    -8.0092     0.0000   220.0000 </r>
       <r>    -7.8572     0.0000   220.0000 </r>
       <r>    -7.7051     0.0000   220.0000 </r>
       <r>    -7.5530     0.0000   220.0000 </r>
       <r>    -7.4010     0.0000   220.0000 </r>
       <r>    -7.2489     0.0000   220.0000 </r>
       <r>    -7.0968     0.0000   220.0000 </r>
       <r>    -6.9448     0.0000   220.0000 </r>
       <r>    -6.7927     0.0000   220.0000 </r>
       <r>    -6.6406     0.0000   220.0000 </r>
       <r>    -6.4886     0.0000   220.0000 </r>
       <r>    -6.3365     0.0000   220.0000 </r>
       <r>    -6.1845     0.0000   220.0000 </r>
       <r>    -6.0324     0.0000   220.0000 </r>
       <r>    -5.8803     0.0000   220.0000 </r>
       <r>    -5.7283     0.0000   220.0000 </r>
       <r>    -5.5762     0.0000   220.0000 </r>
       <r>    -5.4241     0.0000   220.0000 </r>
       <r>    -5.2721     0.0000   220.0000 </r>
       <r>    -5.1200     0.0000   220.0000 </r>
       <r>    -4.9679     0.0000   220.0000 </r>
       <r>    -4.8159     0.0000   220.0000 </r>
       <r>    -4.6638     0.0000   220.0000 </r>
       <r>    -4.5117     0.0000   220.0000 </r>
       <r>    -4.3597     0.0000   220.0000 </r>
       <r>    -4.2076     0.0000   220.0000 </r>
       <r>    -4.0555     0.0000   220.0000 </r>
       <r>    -3.9035     0.0000   220.0000 </r>
       <r>    -3.7514     0.0000   220.0000 </r>
       <r>    -3.5993     0.0000   220.0000 </r>
       <r>    -3.4473     0.0000   220.0000 </r>
       <r>    -3.2952     0.0000   220.0000 </r>
       <r>    -3.1431     0.0000   220.0000 </r>
       <r>    -2.9911     0.0000   220.0000 </r>
       <r>    -2.8390     0.0000   220.0000 </r>
       <r>    -2.6869     0.0000   220.0000 </r>
       <r>    -2.5349     0.0000   220.0000 </r>
       <r>    -2.3828     0.2126   220.0323 </r>
       <r>    -2.2307     7.8524   221.2264 </r>
       <r>    -2.0787    29.2240   225.6704 </r>
       <r>    -1.9266    38.3384   231.5003 </r>
       <r>    -1.7745    49.4558   239.0209 </r>
       <r>    -1.6225    49.3280   246.5220 </r>
       <r>    -1.4704    45.1303   253.3848 </r>
       <r>    -1.3183    51.3972   261.2005 </r>
       <r>    -1.1663    79.5552   273.2981 </r>
       <r>    -1.0142    81.3020   285.6614 </r>
       <r>    -0.8622    75.5392   297.1483 </r>
       <r>    -0.7101    87.0549   310.3864 </r>
       <r>    -0.5580    91.6125   324.3175 </r>
       <r>    -0.4060   109.3775   340.9501 </r>
       <r>    -0.2539    68.9865   351.4406 </r>
       <r>    -0.1018    51.5862   359.2850 </r>
       <r>     0.0502    50.8526   367.0180 </r>
       <r>     0.2023    56.4150   375.5968 </r>
       <r>     0.3544    43.4382   382.2022 </r>
       <r>     0.5064    50.8891   389.9407 </r>
       <r>     0.6585    60.4357   399.1309 </r>
       <r>     0.8106    49.1220   406.6007 </r>
       <r>     0.9626    56.2570   415.1554 </r>
       <r>     1.1147    60.4533   424.3483 </r>
       <r>     1.2668    97.0954   439.1132 </r>
       <r>     1.4188    86.5583   452.2757 </r>
       <r>     1.5709    92.6124   466.3589 </r>
       <r>     1.7230    76.1779   477.9430 </r>
       <r>     1.8750    40.8650   484.1571 </r>
       <r>     2.0271    45.3516   491.0535 </r>
       <r>     2.1792    25.3595   494.9099 </r>
       <r>     2.3312     2.4315   495.2796 </r>
       <r>     2.4833     4.7367   495.9999 </r>
       <r>     2.6354     0.0007   496.0000 </r>
       <r>     2.7874     0.0000   496.0000 </r>
       <r>     2.9395     0.0000   496.0000 </r>
       <r>     3.0916     0.0000   496.0000 </r>
       <r>     3.2436     0.0000   496.0000 </r>
       <r>     3.3957     0.0000   496.0000 </r>
       <r>     3.5478     0.0000   496.0000 </r>
       <r>     3.6998     0.0000   496.0000 </r>
       <r>     3.8519     0.0000   496.0000 </r>
       <r>     4.0040     0.0000   496.0000 </r>
       <r>     4.1560     0.0000   496.0000 </r>
       <r>     4.3081     0.0000   496.0000 </r>
       <r>     4.4601     0.9187   496.1397 </r>
       <r>     4.6122    21.8559   499.4632 </r>
       <r>     4.7643    48.0920   506.7764 </r>
       <r>     4.9163    30.1199   511.3566 </r>
       <r>     5.0684    43.4115   517.9580 </r>
       <r>     5.2205    60.0012   527.0821 </r>
       <r>     5.3725    71.3277   537.9286 </r>
       <r>     5.5246    66.2463   548.0024 </r>
       <r>     5.6767    72.9533   559.0961 </r>
       <r>     5.8287    59.2862   568.1115 </r>
       <r>     5.9808   113.2435   585.3320 </r>
       <r>     6.1329    78.6279   597.2886 </r>
       <r>     6.2849    61.4328   606.6304 </r>
       <r>     6.4370    47.3795   613.8352 </r>
       <r>     6.5891    10.6180   615.4498 </r>
       <r>     6.7411    15.9974   617.8825 </r>
       <r>     6.8932    24.9407   621.6751 </r>
       <r>     7.0453    18.6477   624.5108 </r>
       <r>     7.1973    15.0648   626.8016 </r>
       <r>     7.3494    11.9299   628.6158 </r>
       <r>     7.5015    17.6659   631.3021 </r>
       <r>     7.6535    18.4694   634.1107 </r>
       <r>     7.8056    15.4584   636.4614 </r>
       <r>     7.9577    18.8829   639.3328 </r>
       <r>     8.1097    19.0060   642.2230 </r>
       <r>     8.2618    44.4367   648.9803 </r>
       <r>     8.4139    14.7482   651.2230 </r>
       <r>     8.5659    27.5944   655.4191 </r>
       <r>     8.7180    21.2410   658.6492 </r>
       <r>     8.8701    30.2868   663.2547 </r>
       <r>     9.0221    32.5540   668.2051 </r>
       <r>     9.1742    45.3361   675.0991 </r>
       <r>     9.3263    22.5949   678.5351 </r>
       <r>     9.4783    51.4632   686.3609 </r>
       <r>     9.6304    52.0030   694.2687 </r>
       <r>     9.7824    50.7273   701.9826 </r>
       <r>     9.9345    66.5284   712.0993 </r>
       <r>    10.0866    61.6206   721.4697 </r>
       <r>    10.2386    62.7996   731.0194 </r>
       <r>    10.3907    58.6258   739.9343 </r>
       <r>    10.5428    61.9724   749.3582 </r>
       <r>    10.6948    53.2996   757.4633 </r>
       <r>    10.8469    44.2784   764.1965 </r>
       <r>    10.9990    24.9887   767.9964 </r>
       <r>    11.1510     0.0236   768.0000 </r>
       <r>    11.3031     0.0000   768.0000 </r>
       <r>    11.4552     0.0000   768.0000 </r>
       <r>    11.6072     0.0000   768.0000 </r>
       <r>    11.7593     0.0000   768.0000 </r>
       <r>    11.9114     0.0000   768.0000 </r>
       <r>    12.0634     0.0000   768.0000 </r>
       <r>    12.2155     0.0000   768.0000 </r>
       <r>    12.3676     0.0000   768.0000 </r>
       <r>    12.5196     0.0000   768.0000 </r>
       <r>    12.6717     0.0000   768.0000 </r>
       <r>    12.8238     0.0000   768.0000 </r>
       <r>    12.9758     0.0000   768.0000 </r>
      </set>
     </set>
    </array>
   </total>
  </dos>
 </calculation>
 <structure name="finalpos" >
  <crystal>
   <varray name="basis" >
    <v>      11.23781626      -0.00014984       0.00000000 </v>
    <v>      -0.00017529      11.27224381       0.00000000 </v>
    <v>       0.00000000       0.00000000      15.88777031 </v>
   </varray>
   <i name="volume">   2012.58973523 </i>
   <varray name="rec_basis" >
    <v>       0.08898526       0.00000138       0.00000000 </v>
    <v>       0.00000118       0.08871348       0.00000000 </v>
    <v>       0.00000000       0.00000000       0.06294149 </v>
   </varray>
  </crystal>
  <varray name="positions" >
   <v>       0.00009106       0.25295178       0.11648296 </v>
   <v>       0.99979303       0.24940675       0.63105256 </v>
   <v>       0.99697445       0.74183494       0.11900266 </v>
   <v>       0.99898469       0.75017913       0.63045605 </v>
   <v>       0.50009106       0.25295178       0.11648296 </v>
   <v>       0.49979303       0.24940675       0.63105256 </v>
   <v>       0.49697445       0.74183494       0.11900266 </v>
   <v>       0.49898469       0.75017913       0.63045605 </v>
   <v>       0.00009106       0.25295178       0.38351704 </v>
   <v>       0.99979303       0.24940675       0.86894744 </v>
   <v>       0.99697445       0.74183494       0.38099734 </v>
   <v>       0.99898469       0.75017913       0.86954395 </v>
   <v>       0.50009106       0.25295178       0.38351704 </v>
   <v>       0.49979303       0.24940675       0.86894744 </v>
   <v>       0.49697445       0.74183494       0.38099734 </v>
   <v>       0.49898469       0.75017913       0.86954395 </v>
   <v>       0.24975324       0.99675646       0.11642883 </v>
   <v>       0.24982436       0.00043254       0.63097052 </v>
   <v>       0.24723735       0.50858885       0.11901809 </v>
   <v>       0.24900506       0.49962964       0.63052666 </v>
   <v>       0.74975324       0.99675646       0.11642883 </v>
   <v>       0.74982436       0.00043254       0.63097052 </v>
   <v>       0.74723735       0.50858885       0.11901809 </v>
   <v>       0.74900506       0.49962964       0.63052666 </v>
   <v>       0.24975324       0.99675646       0.38357117 </v>
   <v>       0.24982436       0.00043254       0.86902948 </v>
   <v>       0.24723735       0.50858885       0.38098191 </v>
   <v>       0.24900506       0.49962964       0.86947334 </v>
   <v>       0.74975324       0.99675646       0.38357117 </v>
   <v>       0.74982436       0.00043254       0.86902948 </v>
   <v>       0.74723735       0.50858885       0.38098191 </v>
   <v>       0.74900506       0.49962964       0.86947334 </v>
   <v>       0.99949228       0.00142187       0.00000840 </v>
   <v>       0.99949228       0.00142187       0.49999160 </v>
   <v>       0.49949228       0.00142187       0.00000840 </v>
   <v>       0.49949228       0.00142187       0.49999160 </v>
   <v>       0.24962460       0.24871892       0.99841028 </v>
   <v>       0.49860701       0.49841311       0.75000000 </v>
   <v>       0.74884867       0.75038903       0.99771141 </v>
   <v>       0.99860701       0.49841311       0.75000000 </v>
   <v>       0.24884867       0.75038903       0.99771141 </v>
   <v>       0.49968024       0.99934238       0.75000000 </v>
   <v>       0.24962460       0.24871892       0.50158972 </v>
   <v>       0.25098770       0.74602210       0.25000000 </v>
   <v>       0.74962460       0.24871892       0.50158972 </v>
   <v>       0.49894045       0.49952269       0.50083046 </v>
   <v>       0.99894045       0.49952269       0.99916954 </v>
   <v>       0.99894045       0.49952269       0.50083046 </v>
   <v>       0.74962460       0.24871892       0.99841028 </v>
   <v>       0.74884867       0.75038903       0.50228859 </v>
   <v>       0.00122075       0.50385514       0.25000000 </v>
   <v>       0.99968024       0.99934238       0.75000000 </v>
   <v>       0.75098770       0.74602210       0.25000000 </v>
   <v>       0.24884867       0.75038903       0.50228859 </v>
   <v>       0.50122075       0.50385514       0.25000000 </v>
   <v>       0.49894045       0.49952269       0.99916954 </v>
   <v>       0.24862259       0.75118767       0.75000000 </v>
   <v>       0.00846404       0.96858357       0.25000000 </v>
   <v>       0.25845699       0.28137675       0.25000000 </v>
   <v>       0.24953681       0.25054822       0.75000000 </v>
   <v>       0.75845699       0.28137675       0.25000000 </v>
   <v>       0.74953681       0.25054822       0.75000000 </v>
   <v>       0.50846404       0.96858357       0.25000000 </v>
   <v>       0.74862259       0.75118767       0.75000000 </v>
   <v>       0.99436626       0.02736306       0.13883511 </v>
   <v>       0.99984267       0.99746842       0.62176290 </v>
   <v>       0.00087113       0.50738225       0.12534047 </v>
   <v>       0.99676999       0.49191110       0.62290746 </v>
   <v>       0.49436626       0.02736306       0.13883511 </v>
   <v>       0.49984267       0.99746842       0.62176290 </v>
   <v>       0.50087113       0.50738225       0.12534047 </v>
   <v>       0.49676999       0.49191110       0.62290746 </v>
   <v>       0.99436626       0.02736306       0.36116489 </v>
   <v>       0.99984267       0.99746842       0.87823710 </v>
   <v>       0.00087113       0.50738225       0.37465953 </v>
   <v>       0.99676999       0.49191110       0.87709254 </v>
   <v>       0.49436626       0.02736306       0.36116489 </v>
   <v>       0.49984267       0.99746842       0.87823710 </v>
   <v>       0.50087113       0.50738225       0.37465953 </v>
   <v>       0.49676999       0.49191110       0.87709254 </v>
   <v>       0.24380155       0.22155511       0.36033485 </v>
   <v>       0.24998571       0.25311619       0.87893283 </v>
   <v>       0.25088953       0.74279053       0.37458566 </v>
   <v>       0.24673998       0.75841852       0.87762014 </v>
   <v>       0.74380155       0.22155511       0.36033485 </v>
   <v>       0.74998571       0.25311619       0.87893283 </v>
   <v>       0.75088953       0.74279053       0.37458566 </v>
   <v>       0.74673998       0.75841852       0.87762014 </v>
   <v>       0.24380155       0.22155511       0.13966515 </v>
   <v>       0.24998571       0.25311619       0.62106717 </v>
   <v>       0.25088953       0.74279053       0.12541434 </v>
   <v>       0.24673998       0.75841852       0.62237986 </v>
   <v>       0.74380155       0.22155511       0.13966515 </v>
   <v>       0.74998571       0.25311619       0.62106717 </v>
   <v>       0.75088953       0.74279053       0.12541434 </v>
   <v>       0.74673998       0.75841852       0.62237986 </v>
   <v>       0.15050488       0.40755796       0.25000000 </v>
   <v>       0.41366196       0.34617297       0.25000000 </v>
   <v>       0.65050488       0.40755796       0.25000000 </v>
   <v>       0.91366196       0.34617297       0.25000000 </v>
   <v>       0.10226521       0.65114745       0.25000000 </v>
   <v>       0.35265112       0.59901785       0.25000000 </v>
   <v>       0.60226521       0.65114745       0.25000000 </v>
   <v>       0.85265112       0.59901785       0.25000000 </v>
   <v>       0.16332658       0.90423472       0.25000000 </v>
   <v>       0.40040638       0.84326507       0.25000000 </v>
   <v>       0.66332658       0.90423472       0.25000000 </v>
   <v>       0.90040638       0.84326507       0.25000000 </v>
   <v>       0.13416666       0.11471060       0.49956653 </v>
   <v>       0.38457340       0.13494430       0.49940428 </v>
   <v>       0.63416666       0.11471060       0.49956653 </v>
   <v>       0.88457340       0.13494430       0.49940428 </v>
   <v>       0.11727563       0.36541043       0.49344110 </v>
   <v>       0.36482171       0.38154291       0.48932868 </v>
   <v>       0.61727563       0.36541043       0.49344110 </v>
   <v>       0.86482171       0.38154291       0.48932868 </v>
   <v>       0.13217787       0.61631463       0.50288170 </v>
   <v>       0.38257032       0.63324427       0.50287784 </v>
   <v>       0.63217787       0.61631463       0.50288170 </v>
   <v>       0.88257032       0.63324427       0.50287784 </v>
   <v>       0.11450945       0.86881700       0.48954119 </v>
   <v>       0.36765682       0.88496154       0.49353071 </v>
   <v>       0.61450945       0.86881700       0.48954119 </v>
   <v>       0.86765682       0.88496154       0.49353071 </v>
   <v>       0.11447742       0.13347120       0.75000000 </v>
   <v>       0.36638003       0.11482309       0.75000000 </v>
   <v>       0.61447742       0.13347120       0.75000000 </v>
   <v>       0.86638003       0.11482309       0.75000000 </v>
   <v>       0.13306499       0.38513854       0.75000000 </v>
   <v>       0.38419174       0.36534376       0.75000000 </v>
   <v>       0.63306499       0.38513854       0.75000000 </v>
   <v>       0.88419174       0.36534376       0.75000000 </v>
   <v>       0.11322897       0.63257820       0.75000000 </v>
   <v>       0.36540462       0.61490232       0.75000000 </v>
   <v>       0.61322897       0.63257820       0.75000000 </v>
   <v>       0.86540462       0.61490232       0.75000000 </v>
   <v>       0.13237978       0.88643135       0.75000000 </v>
   <v>       0.38530432       0.86701964       0.75000000 </v>
   <v>       0.63237978       0.88643135       0.75000000 </v>
   <v>       0.88530432       0.86701964       0.75000000 </v>
   <v>       0.13416666       0.11471060       0.00043347 </v>
   <v>       0.38457340       0.13494430       0.00059572 </v>
   <v>       0.63416666       0.11471060       0.00043347 </v>
   <v>       0.88457340       0.13494430       0.00059572 </v>
   <v>       0.11727563       0.36541043       0.00655890 </v>
   <v>       0.36482171       0.38154291       0.01067132 </v>
   <v>       0.61727563       0.36541043       0.00655890 </v>
   <v>       0.86482171       0.38154291       0.01067132 </v>
   <v>       0.13217787       0.61631463       0.99711830 </v>
   <v>       0.38257032       0.63324427       0.99712216 </v>
   <v>       0.63217787       0.61631463       0.99711830 </v>
   <v>       0.88257032       0.63324427       0.99712216 </v>
   <v>       0.11450945       0.86881700       0.01045881 </v>
   <v>       0.36765682       0.88496154       0.00646929 </v>
   <v>       0.61450945       0.86881700       0.01045881 </v>
   <v>       0.86765682       0.88496154       0.00646929 </v>
  </varray>
 </structure>
</modeling>
