       N       E                     dE             d eps       ncg     rms          rms(c)
DAV:   1    -0.991376452928E+03   -0.99138E+03   -0.33476E-05  8240   0.221E-02    0.568E-02
RMM:   2    -0.991376451929E+03    0.99921E-06   -0.27807E-05  6635   0.104E-02    0.965E-02
RMM:   3    -0.991376451704E+03    0.22548E-06   -0.11548E-05  6359   0.612E-03    0.184E-02
RMM:   4    -0.991376451985E+03   -0.28136E-06   -0.53546E-06  4817   0.340E-03    0.166E-02
RMM:   5    -0.991376452210E+03   -0.22448E-06   -0.34603E-06  4314   0.318E-03    0.410E-03
RMM:   6    -0.991376452486E+03   -0.27643E-06   -0.21941E-06  3317   0.245E-03    0.530E-03
RMM:   7    -0.991376452707E+03   -0.22077E-06   -0.14276E-06  3048   0.238E-03    0.309E-03
RMM:   8    -0.991376452923E+03   -0.21614E-06   -0.97748E-07  2676   0.217E-03
   1 F= -.99137645E+03 E0= -.99137599E+03  d E =-.991376E+03  mag=   116.0000
       N       E                     dE             d eps       ncg     rms          rms(c)
DAV:   1    -0.991375986633E+03    0.46607E-03   -0.31873E-01 12544   0.667E-01    0.309E-01
RMM:   2    -0.991377307367E+03   -0.13207E-02   -0.94713E-03 12594   0.141E-01    0.220E-01
RMM:   3    -0.991377440196E+03   -0.13283E-03   -0.51349E-04 10004   0.393E-02    0.126E-01
RMM:   4    -0.991377414550E+03    0.25646E-04   -0.74082E-05  7435   0.145E-02    0.795E-02
RMM:   5    -0.991377397032E+03    0.17517E-04   -0.86986E-05  7338   0.118E-02    0.402E-02
RMM:   6    -0.991377400639E+03   -0.36066E-05   -0.20252E-05  7068   0.800E-03    0.220E-02
RMM:   7    -0.991377401497E+03   -0.85852E-06   -0.78065E-06  6488   0.444E-03    0.154E-02
RMM:   8    -0.991377402236E+03   -0.73851E-06   -0.31386E-06  4938   0.330E-03
   2 F= -.99137740E+03 E0= -.99137695E+03  d E =-.949313E-03  mag=   116.0000
