       N       E                     dE             d eps       ncg     rms          rms(c)
DAV:   1    -0.109033008917E+04   -0.10903E+04   -0.21506E-01  6808   0.106E+00    0.734E-02
RMM:   2    -0.109033009842E+04   -0.92511E-05   -0.22264E-04  4060   0.274E-02    0.116E-01
RMM:   3    -0.109033010061E+04   -0.21833E-05   -0.57315E-05  3614   0.150E-02    0.232E-02
RMM:   4    -0.109033010626E+04   -0.56499E-05   -0.35447E-05  3587   0.892E-03    0.128E-02
RMM:   5    -0.109033011066E+04   -0.44034E-05   -0.20866E-05  3541   0.855E-03    0.104E-02
RMM:   6    -0.109033011333E+04   -0.26654E-05   -0.17652E-05  3412   0.549E-03    0.421E-03
RMM:   7    -0.109033011451E+04   -0.11843E-05   -0.10939E-05  3206   0.555E-03    0.340E-03
RMM:   8    -0.109033011551E+04   -0.99529E-06   -0.83056E-06  2641   0.369E-03
   1 F= -.10903301E+04 E0= -.10903301E+04  d E =-.109033E+04  mag=    40.0000
       N       E                     dE             d eps       ncg     rms          rms(c)
DAV:   1    -0.109032693941E+04    0.31751E-02   -0.53607E+00  6208   0.267E+00    0.105E+00
RMM:   2    -0.109034492045E+04   -0.17981E-01   -0.14681E-01  6183   0.522E-01    0.780E-01
RMM:   3    -0.109034630941E+04   -0.13890E-02   -0.86609E-03  6290   0.194E-01    0.453E-01
RMM:   4    -0.109034569891E+04    0.61049E-03   -0.25360E-03  7414   0.610E-02    0.259E-01
RMM:   5    -0.109034552394E+04    0.17498E-03   -0.11508E-03  6169   0.385E-02    0.133E-01
RMM:   6    -0.109034551138E+04    0.12558E-04   -0.12104E-04  3939   0.194E-02    0.610E-02
RMM:   7    -0.109034551277E+04   -0.13960E-05   -0.51685E-05  3670   0.111E-02    0.293E-02
RMM:   8    -0.109034551363E+04   -0.85475E-06   -0.31272E-05  3620   0.971E-03
   2 F= -.10903455E+04 E0= -.10903455E+04  d E =-.153981E-01  mag=    40.0000
       N       E                     dE             d eps       ncg     rms          rms(c)
DAV:   1    -0.109034512721E+04    0.38556E-03   -0.30393E-01  6512   0.635E-01    0.251E-01
RMM:   2    -0.109034616340E+04   -0.10362E-02   -0.84890E-03  6176   0.125E-01    0.187E-01
RMM:   3    -0.109034623865E+04   -0.75247E-04   -0.47996E-04  5249   0.458E-02    0.109E-01
RMM:   4    -0.109034620369E+04    0.34958E-04   -0.13007E-04  3727   0.155E-02    0.645E-02
RMM:   5    -0.109034619548E+04    0.82124E-05   -0.62675E-05  3620   0.122E-02    0.395E-02
RMM:   6    -0.109034619742E+04   -0.19420E-05   -0.23280E-05  3504   0.915E-03    0.137E-02
RMM:   7    -0.109034619832E+04   -0.90145E-06   -0.11840E-05  3410   0.507E-03    0.795E-03
RMM:   8    -0.109034619884E+04   -0.52323E-06   -0.73601E-06  3242   0.492E-03
   3 F= -.10903462E+04 E0= -.10903462E+04  d E =-.160833E-01  mag=    40.0000
       N       E                     dE             d eps       ncg     rms          rms(c)
DAV:   1    -0.109034973965E+04   -0.35413E-02   -0.34752E+00  6192   0.218E+00    0.583E-01
RMM:   2    -0.109035768571E+04   -0.79461E-02   -0.86827E-02  6193   0.392E-01    0.391E-01
RMM:   3    -0.109035785687E+04   -0.17117E-03   -0.52323E-03  6110   0.161E-01    0.237E-01
RMM:   4    -0.109035754003E+04    0.31685E-03   -0.17353E-03  7152   0.495E-02    0.144E-01
RMM:   5    -0.109035747711E+04    0.62917E-04   -0.34251E-04  4779   0.249E-02    0.996E-02
RMM:   6    -0.109035747954E+04   -0.24295E-05   -0.10502E-04  3680   0.160E-02    0.316E-02
RMM:   7    -0.109035748434E+04   -0.48065E-05   -0.44752E-05  3618   0.119E-02    0.205E-02
RMM:   8    -0.109035748744E+04   -0.30932E-05   -0.28161E-05  3579   0.818E-03
   4 F= -.10903575E+04 E0= -.10903575E+04  d E =-.112886E-01  mag=    40.0000
       N       E                     dE             d eps       ncg     rms          rms(c)
DAV:   1    -0.109034568938E+04    0.11795E-01   -0.80337E+00  6144   0.331E+00    0.882E-01
RMM:   2    -0.109036409887E+04   -0.18409E-01   -0.20122E-01  6200   0.600E-01    0.592E-01
RMM:   3    -0.109036453625E+04   -0.43739E-03   -0.12349E-02  6240   0.245E-01    0.360E-01
RMM:   4    -0.109036380206E+04    0.73420E-03   -0.39959E-03  8019   0.749E-02    0.215E-01
RMM:   5    -0.109036367378E+04    0.12828E-03   -0.91715E-04  6238   0.337E-02    0.148E-01
RMM:   6    -0.109036367304E+04    0.74081E-06   -0.21022E-04  4315   0.182E-02    0.457E-02
RMM:   7    -0.109036367902E+04   -0.59839E-05   -0.77968E-05  3708   0.147E-02    0.290E-02
RMM:   8    -0.109036368507E+04   -0.60467E-05   -0.57032E-05  3648   0.949E-03
   5 F= -.10903637E+04 E0= -.10903637E+04  d E =-.174862E-01  mag=    40.0000
       N       E                     dE             d eps       ncg     rms          rms(c)
DAV:   1    -0.109036255126E+04    0.11278E-02   -0.45889E+00  6144   0.248E+00    0.612E-01
RMM:   2    -0.109037325373E+04   -0.10702E-01   -0.11398E-01  6234   0.444E-01    0.405E-01
RMM:   3    -0.109037345611E+04   -0.20238E-03   -0.69104E-03  6222   0.183E-01    0.250E-01
RMM:   4    -0.109037315134E+04    0.30477E-03   -0.19728E-03  7465   0.530E-02    0.156E-01
RMM:   5    -0.109037305230E+04    0.99039E-04   -0.57785E-04  5683   0.278E-02    0.115E-01
RMM:   6    -0.109037305667E+04   -0.43693E-05   -0.13882E-04  3802   0.168E-02    0.355E-02
RMM:   7    -0.109037306180E+04   -0.51312E-05   -0.48513E-05  3631   0.116E-02    0.190E-02
RMM:   8    -0.109037306659E+04   -0.47907E-05   -0.38770E-05  3601   0.962E-03
   6 F= -.10903731E+04 E0= -.10903731E+04  d E =-.938152E-02  mag=    40.0000
       N       E                     dE             d eps       ncg     rms          rms(c)
DAV:   1    -0.109036269020E+04    0.10372E-01   -0.62283E+00  6144   0.289E+00    0.710E-01
RMM:   2    -0.109037721810E+04   -0.14528E-01   -0.15475E-01  6230   0.517E-01    0.470E-01
RMM:   3    -0.109037750114E+04   -0.28304E-03   -0.93396E-03  6235   0.213E-01    0.292E-01
RMM:   4    -0.109037708926E+04    0.41188E-03   -0.26426E-03  7845   0.618E-02    0.186E-01
RMM:   5    -0.109037695854E+04    0.13072E-03   -0.76438E-04  6035   0.300E-02    0.137E-01
RMM:   6    -0.109037696124E+04   -0.27020E-05   -0.17370E-04  4057   0.178E-02    0.390E-02
RMM:   7    -0.109037696826E+04   -0.70241E-05   -0.71294E-05  3678   0.131E-02    0.248E-02
RMM:   8    -0.109037697351E+04   -0.52452E-05   -0.45261E-05  3620   0.101E-02
   7 F= -.10903770E+04 E0= -.10903770E+04  d E =-.132884E-01  mag=    40.0000
       N       E                     dE             d eps       ncg     rms          rms(c)
DAV:   1    -0.109037565453E+04    0.13137E-02   -0.30639E+00  6224   0.204E+00    0.587E-01
RMM:   2    -0.109038335328E+04   -0.76988E-02   -0.76900E-02  6193   0.369E-01    0.393E-01
RMM:   3    -0.109038369839E+04   -0.34511E-03   -0.48559E-03  6226   0.154E-01    0.218E-01
RMM:   4    -0.109038354820E+04    0.15018E-03   -0.13479E-03  6869   0.438E-02    0.163E-01
RMM:   5    -0.109038345836E+04    0.89848E-04   -0.29634E-04  4512   0.247E-02    0.110E-01
RMM:   6    -0.109038345714E+04    0.12167E-05   -0.18026E-04  3809   0.170E-02    0.359E-02
RMM:   7    -0.109038345863E+04   -0.14936E-05   -0.51351E-05  3602   0.133E-02    0.200E-02
RMM:   8    -0.109038345995E+04   -0.13158E-05   -0.31241E-05  3571   0.837E-03
   8 F= -.10903835E+04 E0= -.10903835E+04  d E =-.648644E-02  mag=    40.0000
       N       E                     dE             d eps       ncg     rms          rms(c)
DAV:   1    -0.109037669656E+04    0.67621E-02   -0.35329E+00  6192   0.219E+00    0.630E-01
RMM:   2    -0.109038558756E+04   -0.88910E-02   -0.88726E-02  6194   0.396E-01    0.423E-01
RMM:   3    -0.109038599953E+04   -0.41197E-03   -0.56339E-03  6232   0.166E-01    0.233E-01
RMM:   4    -0.109038583231E+04    0.16721E-03   -0.15595E-03  7147   0.471E-02    0.169E-01
RMM:   5    -0.109038572900E+04    0.10332E-03   -0.37180E-04  4797   0.255E-02    0.121E-01
RMM:   6    -0.109038572725E+04    0.17455E-05   -0.17602E-04  3827   0.170E-02    0.359E-02
RMM:   7    -0.109038572877E+04   -0.15159E-05   -0.53850E-05  3613   0.133E-02    0.205E-02
RMM:   8    -0.109038572971E+04   -0.94202E-06   -0.31157E-05  3581   0.881E-03
   9 F= -.10903857E+04 E0= -.10903857E+04  d E =-.875620E-02  mag=    40.0000
       N       E                     dE             d eps       ncg     rms          rms(c)
DAV:   1    -0.109038438024E+04    0.13485E-02   -0.24149E+00  6208   0.182E+00    0.455E-01
RMM:   2    -0.109039060050E+04   -0.62203E-02   -0.60160E-02  6299   0.323E-01    0.288E-01
RMM:   3    -0.109039085322E+04   -0.25272E-03   -0.35636E-03  6258   0.131E-01    0.164E-01
RMM:   4    -0.109039073297E+04    0.12024E-03   -0.92045E-04  6256   0.367E-02    0.102E-01
RMM:   5    -0.109039069123E+04    0.41747E-04   -0.20298E-04  3919   0.222E-02    0.795E-02
RMM:   6    -0.109039069914E+04   -0.79076E-05   -0.88100E-05  3609   0.160E-02    0.179E-02
RMM:   7    -0.109039070415E+04   -0.50185E-05   -0.40869E-05  3566   0.110E-02    0.124E-02
RMM:   8    -0.109039070677E+04   -0.26136E-05   -0.24494E-05  3481   0.843E-03
  10 F= -.10903907E+04 E0= -.10903907E+04  d E =-.497706E-02  mag=    40.0000
       N       E                     dE             d eps       ncg     rms          rms(c)
DAV:   1    -0.109036727432E+04    0.23430E-01   -0.10541E+01  6176   0.380E+00    0.948E-01
RMM:   2    -0.109039424530E+04   -0.26971E-01   -0.26119E-01  6280   0.675E-01    0.602E-01
RMM:   3    -0.109039539002E+04   -0.11447E-02   -0.15593E-02  6404   0.276E-01    0.343E-01
RMM:   4    -0.109039485537E+04    0.53464E-03   -0.40102E-03  8226   0.764E-02    0.210E-01
RMM:   5    -0.109039471427E+04    0.14110E-03   -0.11162E-03  6903   0.340E-02    0.153E-01
RMM:   6    -0.109039472518E+04   -0.10903E-04   -0.24404E-04  4805   0.201E-02    0.364E-02
RMM:   7    -0.109039473739E+04   -0.12216E-04   -0.10973E-04  3785   0.143E-02    0.263E-02
RMM:   8    -0.109039474276E+04   -0.53669E-05   -0.64721E-05  3620   0.110E-02
  11 F= -.10903947E+04 E0= -.10903947E+04  d E =-.901305E-02  mag=    40.0000
       N       E                     dE             d eps       ncg     rms          rms(c)
DAV:   1    -0.109039162090E+04    0.31165E-02   -0.28982E+00  6176   0.200E+00    0.508E-01
RMM:   2    -0.109039865495E+04   -0.70341E-02   -0.74815E-02  6230   0.370E-01    0.371E-01
RMM:   3    -0.109039888917E+04   -0.23422E-03   -0.47949E-03  6344   0.150E-01    0.225E-01
RMM:   4    -0.109039872225E+04    0.16692E-03   -0.12042E-03  6809   0.425E-02    0.147E-01
RMM:   5    -0.109039864507E+04    0.77178E-04   -0.39199E-04  4921   0.249E-02    0.111E-01
RMM:   6    -0.109039864942E+04   -0.43496E-05   -0.11104E-04  3662   0.172E-02    0.271E-02
RMM:   7    -0.109039865352E+04   -0.40943E-05   -0.47862E-05  3598   0.116E-02    0.142E-02
RMM:   8    -0.109039865544E+04   -0.19213E-05   -0.28631E-05  3535   0.894E-03
  12 F= -.10903987E+04 E0= -.10903987E+04  d E =-.391268E-02  mag=    40.0000
       N       E                     dE             d eps       ncg     rms          rms(c)
DAV:   1    -0.109039749485E+04    0.11587E-02   -0.67238E-01  6336   0.966E-01    0.242E-01
RMM:   2    -0.109039914706E+04   -0.16522E-02   -0.17541E-02  6260   0.179E-01    0.176E-01
RMM:   3    -0.109039919855E+04   -0.51492E-04   -0.11136E-03  5941   0.727E-02    0.109E-01
RMM:   4    -0.109039915835E+04    0.40200E-04   -0.23916E-04  4002   0.211E-02    0.799E-02
RMM:   5    -0.109039914240E+04    0.15944E-04   -0.76445E-05  3627   0.145E-02    0.602E-02
RMM:   6    -0.109039914368E+04   -0.12785E-05   -0.44281E-05  3560   0.114E-02    0.129E-02
RMM:   7    -0.109039914566E+04   -0.19749E-05   -0.19292E-05  3488   0.775E-03    0.772E-03
RMM:   8    -0.109039914662E+04   -0.96219E-06   -0.11793E-05  3379   0.582E-03
  13 F= -.10903991E+04 E0= -.10903991E+04  d E =-.440386E-02  mag=    40.0000
       N       E                     dE             d eps       ncg     rms          rms(c)
DAV:   1    -0.109039902338E+04    0.12228E-03   -0.84973E-01  6208   0.108E+00    0.312E-01
RMM:   2    -0.109040119038E+04   -0.21670E-02   -0.22089E-02  6188   0.203E-01    0.212E-01
RMM:   3    -0.109040128534E+04   -0.94957E-04   -0.14781E-03  6132   0.812E-02    0.125E-01
RMM:   4    -0.109040120744E+04    0.77900E-04   -0.32819E-04  4539   0.235E-02    0.804E-02
RMM:   5    -0.109040117826E+04    0.29185E-04   -0.10926E-04  3648   0.167E-02    0.533E-02
RMM:   6    -0.109040118236E+04   -0.41066E-05   -0.41335E-05  3563   0.124E-02    0.166E-02
RMM:   7    -0.109040118494E+04   -0.25727E-05   -0.19156E-05  3532   0.718E-03    0.105E-02
RMM:   8    -0.109040118634E+04   -0.14066E-05   -0.10455E-05  3427   0.619E-03
  14 F= -.10904012E+04 E0= -.10904012E+04  d E =-.203972E-02  mag=    40.0000
