<?xml version="1.0" encoding="ISO-8859-1"?>
<modeling>
 <generator>
  <i name="program" type="string">vasp </i>
  <i name="version" type="string">5.4.1  </i>
  <i name="subversion" type="string">05Feb16 (build Jan 25 2017 20:16:33) complex                          parallel </i>
  <i name="platform" type="string">BWXE6 </i>
  <i name="date" type="string">2019 08 12 </i>
  <i name="time" type="string">10:31:39 </i>
 </generator>
 <incar>
  <i type="string" name="SYSTEM"> STF</i>
  <i type="string" name="PREC">normal</i>
  <i type="string" name="ALGO"> Fast</i>
  <i type="int" name="ISPIN">     2</i>
  <i type="int" name="NELM">    40</i>
  <i type="int" name="NELMIN">     8</i>
  <i type="int" name="IBRION">     2</i>
  <i name="EDIFF">      0.00010000</i>
  <i name="EDIFFG">     -0.03000000</i>
  <i type="int" name="NSW">    30</i>
  <i type="int" name="ISIF">     3</i>
  <i name="ENCUT">    520.00000000</i>
  <i type="int" name="NBANDS">   768</i>
  <v name="MAGMOM">      0.60000000      0.60000000      0.60000000      0.60000000      0.60000000      0.60000000      0.60000000      0.60000000      0.60000000      0.60000000      0.60000000      0.60000000      0.60000000      0.60000000      0.60000000      0.60000000      0.60000000      0.60000000      0.60000000      0.60000000
      0.60000000      0.60000000      0.60000000      0.60000000      0.60000000      0.60000000      0.60000000      0.60000000      0.60000000      0.60000000      0.60000000      0.60000000      0.60000000      0.60000000      0.60000000      0.60000000      0.60000000      0.60000000      0.60000000      0.60000000
      0.60000000      0.60000000      0.60000000      0.60000000      0.60000000      0.60000000      0.60000000      0.60000000      0.60000000      0.60000000      0.60000000      0.60000000      5.00000000      5.00000000      5.00000000      5.00000000      5.00000000      5.00000000      5.00000000      5.00000000
      5.00000000      5.00000000      5.00000000      5.00000000      0.60000000      0.60000000      0.60000000      0.60000000      0.60000000      0.60000000      0.60000000      0.60000000      0.60000000      0.60000000      0.60000000      0.60000000      0.60000000      0.60000000      0.60000000      0.60000000
      0.60000000      0.60000000      0.60000000      0.60000000      0.60000000      0.60000000      0.60000000      0.60000000      0.60000000      0.60000000      0.60000000      0.60000000      0.60000000      0.60000000      0.60000000      0.60000000      0.60000000      0.60000000      0.60000000      0.60000000
      0.60000000      0.60000000      0.60000000      0.60000000      0.60000000      0.60000000      0.60000000      0.60000000      0.60000000      0.60000000      0.60000000      0.60000000      0.60000000      0.60000000      0.60000000      0.60000000      0.60000000      0.60000000      0.60000000      0.60000000
      0.60000000      0.60000000      0.60000000      0.60000000      0.60000000      0.60000000      0.60000000      0.60000000      0.60000000      0.60000000      0.60000000      0.60000000      0.60000000      0.60000000      0.60000000      0.60000000      0.60000000      0.60000000      0.60000000      0.60000000
      0.60000000      0.60000000      0.60000000      0.60000000      0.60000000      0.60000000      0.60000000      0.60000000      0.60000000      0.60000000      0.60000000      0.60000000      0.60000000      0.60000000</v>
  <i type="string" name="LREAL"> Auto</i>
  <i type="int" name="ISMEAR">     0</i>
  <i name="SIGMA">      0.05000000</i>
  <i type="int" name="LMAXMIX">     4</i>
  <v type="int" name="KPOINT_BSE">    -1     0     0     0</v>
  <i type="int" name="NELM">    40</i>
  <i type="logical" name="LDAU"> T  </i>
  <v type="int" name="LDAUTYPE">     2</v>
  <v type="int" name="LDAUL">     0     2     2     0</v>
  <v name="LDAUU">      0.00000000      3.00000000      5.00000000      0.00000000</v>
  <v name="LDAUJ">      0.00000000      0.00000000      0.00000000      0.00000000</v>
  <i type="int" name="LDAUPRINT">     1</i>
 </incar>
 <kpoints>
  <generation param="Monkhorst-Pack">
   <v type="int" name="divisions">       2        2        2 </v>
   <v name="usershift">      0.00000000       0.00000000       0.00000000 </v>
   <v name="genvec1">      0.50000000       0.00000000       0.00000000 </v>
   <v name="genvec2">      0.00000000       0.50000000       0.00000000 </v>
   <v name="genvec3">      0.00000000       0.00000000       0.50000000 </v>
   <v name="shift">      0.50000000       0.50000000       0.50000000 </v>
  </generation>
  <varray name="kpointlist" >
   <v>       0.25000000       0.25000000       0.25000000 </v>
   <v>      -0.25000000       0.25000000       0.25000000 </v>
  </varray>
  <varray name="weights" >
   <v>       0.50000000 </v>
   <v>       0.50000000 </v>
  </varray>
 </kpoints>
 <parameters>
  <separator name="general" >
   <i type="string" name="SYSTEM">STF</i>
   <i type="logical" name="LCOMPAT"> F  </i>
  </separator>
  <separator name="electronic" >
   <i type="string" name="PREC">normal</i>
   <i name="ENMAX">    520.00000000</i>
   <i name="ENAUG">    605.39200000</i>
   <i name="EDIFF">      0.00010000</i>
   <i type="int" name="IALGO">    68</i>
   <i type="int" name="IWAVPR">    11</i>
   <i type="int" name="NBANDS">   768</i>
   <i name="NELECT">   1036.00000000</i>
   <i type="int" name="TURBO">     0</i>
   <i type="int" name="IRESTART">     0</i>
   <i type="int" name="NREBOOT">     0</i>
   <i type="int" name="NMIN">     0</i>
   <i name="EREF">      0.00000000</i>
   <separator name="electronic smearing" >
    <i type="int" name="ISMEAR">     0</i>
    <i name="SIGMA">      0.05000000</i>
    <i name="KSPACING">      0.50000000</i>
    <i type="logical" name="KGAMMA"> T  </i>
   </separator>
   <separator name="electronic projectors" >
    <i type="logical" name="LREAL"> T  </i>
    <v name="ROPT">     -0.00050000     -0.00050000     -0.00050000     -0.00050000</v>
    <i type="int" name="LMAXPAW">  -100</i>
    <i type="int" name="LMAXMIX">     4</i>
    <i type="logical" name="NLSPLINE"> F  </i>
   </separator>
   <separator name="electronic startup" >
    <i type="int" name="ISTART">     1</i>
    <i type="int" name="ICHARG">     0</i>
    <i type="int" name="INIWAV">     1</i>
   </separator>
   <separator name="electronic spin" >
    <i type="int" name="ISPIN">     2</i>
    <i type="logical" name="LNONCOLLINEAR"> F  </i>
    <v name="MAGMOM">      0.60000000      0.60000000      0.60000000      0.60000000      0.60000000      0.60000000      0.60000000      0.60000000      0.60000000      0.60000000      0.60000000      0.60000000      0.60000000      0.60000000      0.60000000      0.60000000      0.60000000      0.60000000      0.60000000      0.60000000
      0.60000000      0.60000000      0.60000000      0.60000000      0.60000000      0.60000000      0.60000000      0.60000000      0.60000000      0.60000000      0.60000000      0.60000000      0.60000000      0.60000000      0.60000000      0.60000000      0.60000000      0.60000000      0.60000000      0.60000000
      0.60000000      0.60000000      0.60000000      0.60000000      0.60000000      0.60000000      0.60000000      0.60000000      0.60000000      0.60000000      0.60000000      0.60000000      5.00000000      5.00000000      5.00000000      5.00000000      5.00000000      5.00000000      5.00000000      5.00000000
      5.00000000      5.00000000      5.00000000      5.00000000      0.60000000      0.60000000      0.60000000      0.60000000      0.60000000      0.60000000      0.60000000      0.60000000      0.60000000      0.60000000      0.60000000      0.60000000      0.60000000      0.60000000      0.60000000      0.60000000
      0.60000000      0.60000000      0.60000000      0.60000000      0.60000000      0.60000000      0.60000000      0.60000000      0.60000000      0.60000000      0.60000000      0.60000000      0.60000000      0.60000000      0.60000000      0.60000000      0.60000000      0.60000000      0.60000000      0.60000000
      0.60000000      0.60000000      0.60000000      0.60000000      0.60000000      0.60000000      0.60000000      0.60000000      0.60000000      0.60000000      0.60000000      0.60000000      0.60000000      0.60000000      0.60000000      0.60000000      0.60000000      0.60000000      0.60000000      0.60000000
      0.60000000      0.60000000      0.60000000      0.60000000      0.60000000      0.60000000      0.60000000      0.60000000      0.60000000      0.60000000      0.60000000      0.60000000      0.60000000      0.60000000      0.60000000      0.60000000      0.60000000      0.60000000      0.60000000      0.60000000
      0.60000000      0.60000000      0.60000000      0.60000000      0.60000000      0.60000000      0.60000000      0.60000000      0.60000000      0.60000000      0.60000000      0.60000000      0.60000000      0.60000000</v>
    <i name="NUPDOWN">     -1.00000000</i>
    <i type="logical" name="LSORBIT"> F  </i>
    <v name="SAXIS">      0.00000000      0.00000000      1.00000000</v>
    <i type="logical" name="LSPIRAL"> F  </i>
    <v name="QSPIRAL">      0.00000000      0.00000000      0.00000000</v>
    <i type="logical" name="LZEROZ"> F  </i>
   </separator>
   <separator name="electronic exchange-correlation" >
    <i type="logical" name="LASPH"> F  </i>
    <i type="logical" name="LMETAGGA"> F  </i>
   </separator>
   <separator name="electronic convergence" >
    <i type="int" name="NELM">    40</i>
    <i type="int" name="NELMDL">     0</i>
    <i type="int" name="NELMIN">     8</i>
    <i name="ENINI">    520.00000000</i>
    <separator name="electronic convergence detail" >
     <i type="logical" name="LDIAG"> T  </i>
     <i type="logical" name="LSUBROT"> F  </i>
     <i name="WEIMIN">      0.00100000</i>
     <i name="EBREAK">      0.00000003</i>
     <i name="DEPER">      0.30000000</i>
     <i type="int" name="NRMM">     4</i>
     <i name="TIME">      0.40000000</i>
    </separator>
   </separator>
   <separator name="electronic mixer" >
    <i name="AMIX">      0.40000000</i>
    <i name="BMIX">      1.00000000</i>
    <i name="AMIN">      0.10000000</i>
    <i name="AMIX_MAG">      1.60000000</i>
    <i name="BMIX_MAG">      1.00000000</i>
    <separator name="electronic mixer details" >
     <i type="int" name="IMIX">     4</i>
     <i type="logical" name="MIXFIRST"> F  </i>
     <i type="int" name="MAXMIX">   -45</i>
     <i name="WC">    100.00000000</i>
     <i type="int" name="INIMIX">     1</i>
     <i type="int" name="MIXPRE">     1</i>
     <i type="int" name="MREMOVE">     5</i>
    </separator>
   </separator>
   <separator name="electronic dipolcorrection" >
    <i type="logical" name="LDIPOL"> F  </i>
    <i type="logical" name="LMONO"> F  </i>
    <i type="int" name="IDIPOL">     0</i>
    <i name="EPSILON">      1.00000000</i>
    <v name="DIPOL">   -100.00000000   -100.00000000   -100.00000000</v>
    <i name="EFIELD">      0.00000000</i>
   </separator>
  </separator>
  <separator name="grids" >
   <i type="int" name="NGX">    64</i>
   <i type="int" name="NGY">    64</i>
   <i type="int" name="NGZ">    90</i>
   <i type="int" name="NGXF">   128</i>
   <i type="int" name="NGYF">   128</i>
   <i type="int" name="NGZF">   180</i>
   <i type="logical" name="ADDGRID"> F  </i>
  </separator>
  <separator name="ionic" >
   <i type="int" name="NSW">    30</i>
   <i type="int" name="IBRION">     2</i>
   <i type="int" name="ISIF">     3</i>
   <i name="PSTRESS">      0.00000000</i>
   <i name="EDIFFG">     -0.03000000</i>
   <i type="int" name="NFREE">     1</i>
   <i name="POTIM">      0.50000000</i>
   <i name="SMASS">     -3.00000000</i>
   <i name="SCALEE">      1.00000000</i>
  </separator>
  <separator name="ionic md" >
   <i name="TEBEG">      0.00010000</i>
   <i name="TEEND">      0.00010000</i>
   <i type="int" name="NBLOCK">     1</i>
   <i type="int" name="KBLOCK">    30</i>
   <i type="int" name="NPACO">   256</i>
   <i name="APACO">     16.00000000</i>
  </separator>
  <separator name="symmetry" >
   <i type="int" name="ISYM">     2</i>
   <i name="SYMPREC">      0.00001000</i>
  </separator>
  <separator name="dos" >
   <i type="logical" name="LORBIT"> F  </i>
   <v name="RWIGS">     -1.00000000     -1.00000000     -1.00000000     -1.00000000</v>
   <i type="int" name="NEDOS">   301</i>
   <i name="EMIN">     10.00000000</i>
   <i name="EMAX">    -10.00000000</i>
   <i name="EFERMI">      0.00000000</i>
  </separator>
  <separator name="writing" >
   <i type="int" name="NWRITE">     2</i>
   <i type="logical" name="LWAVE"> T  </i>
   <i type="logical" name="LCHARG"> T  </i>
   <i type="logical" name="LPARD"> F  </i>
   <i type="logical" name="LVTOT"> F  </i>
   <i type="logical" name="LVHAR"> F  </i>
   <i type="logical" name="LELF"> F  </i>
   <i type="logical" name="LOPTICS"> F  </i>
   <v name="STM">      0.00000000      0.00000000      0.00000000      0.00000000      0.00000000      0.00000000      0.00000000</v>
  </separator>
  <separator name="performance" >
   <i type="int" name="NPAR">     2</i>
   <i type="int" name="NSIM">     4</i>
   <i type="int" name="NBLK">    -1</i>
   <i type="logical" name="LPLANE"> T  </i>
   <i type="logical" name="LSCALAPACK"> T  </i>
   <i type="logical" name="LSCAAWARE"> F  </i>
   <i type="logical" name="LSCALU"> F  </i>
   <i type="logical" name="LASYNC"> F  </i>
   <i type="logical" name="LORBITALREAL"> F  </i>
  </separator>
  <separator name="miscellaneous" >
   <i type="int" name="IDIOT">     3</i>
   <i type="logical" name="LMUSIC"> F  </i>
   <v name="POMASS">     87.62000000     47.88000000     55.84700000     16.00000000</v>
   <v name="DARWINR">      0.00000000      0.00000000      0.00000000      0.00000000</v>
   <v name="DARWINV">      1.00000000      1.00000000      1.00000000      1.00000000</v>
   <i type="logical" name="LCORR"> T  </i>
  </separator>
  <i type="logical" name="GGA_COMPAT"> T  </i>
  <i type="logical" name="LBERRY"> F  </i>
  <i type="int" name="ICORELEVEL">     0</i>
  <i type="logical" name="LDAU"> T  </i>
  <v type="int" name="LDAUTYPE">     2</v>
  <v type="int" name="LDAUL">     0</v>
  <v name="LDAUU">      0.00000000</v>
  <v name="LDAUJ">      0.00000000</v>
  <i type="int" name="LDAUPRINT">     1</i>
  <i type="int" name="I_CONSTRAINED_M">     0</i>
  <separator name="electronic exchange-correlation" >
   <i type="string" name="GGA">--</i>
   <i type="int" name="VOSKOWN">     0</i>
   <i type="logical" name="LHFCALC"> F  </i>
   <i type="string" name="PRECFOCK"></i>
   <i type="logical" name="LSYMGRAD"> F  </i>
   <i type="logical" name="LHFONE"> F  </i>
   <i type="logical" name="LRHFCALC"> F  </i>
   <i type="logical" name="LTHOMAS"> F  </i>
   <i type="logical" name="LMODELHF"> F  </i>
   <i name="ENCUT4O">     -1.00000000</i>
   <i type="int" name="EXXOEP">     0</i>
   <i type="int" name="FOURORBIT">     0</i>
   <i name="AEXX">      0.00000000</i>
   <i name="HFALPHA">      0.00000000</i>
   <i name="MCALPHA">      0.00000000</i>
   <i name="ALDAX">      1.00000000</i>
   <i name="AGGAX">      1.00000000</i>
   <i name="ALDAC">      1.00000000</i>
   <i name="AGGAC">      1.00000000</i>
   <i type="int" name="NKREDX">     1</i>
   <i type="int" name="NKREDY">     1</i>
   <i type="int" name="NKREDZ">     1</i>
   <i type="logical" name="SHIFTRED"> F  </i>
   <i type="logical" name="ODDONLY"> F  </i>
   <i type="logical" name="EVENONLY"> F  </i>
   <i type="int" name="LMAXFOCK">     0</i>
   <i type="int" name="NMAXFOCKAE">     0</i>
   <i type="logical" name="LFOCKAEDFT"> F  </i>
   <i name="HFSCREEN">      0.00000000</i>
   <i name="HFSCREENC">      0.00000000</i>
   <i type="int" name="NBANDSGWLOW">     0</i>
  </separator>
  <separator name="vdW DFT" >
   <i type="logical" name="LUSE_VDW"> F  </i>
   <i name="Zab_VDW">     -0.84910000</i>
   <i name="PARAM1">      0.12340000</i>
   <i name="PARAM2">      1.00000000</i>
   <i name="PARAM3">      0.00000000</i>
  </separator>
  <separator name="model GW" >
   <i type="int" name="MODEL_GW">     0</i>
   <i name="MODEL_EPS0">      7.83265711</i>
   <i name="MODEL_ALPHA">      1.00000000</i>
  </separator>
  <separator name="linear response parameters" >
   <i type="logical" name="LEPSILON"> F  </i>
   <i type="logical" name="LRPA"> F  </i>
   <i type="logical" name="LNABLA"> F  </i>
   <i type="logical" name="LVEL"> F  </i>
   <i type="int" name="KINTER">     0</i>
   <i name="CSHIFT">      0.10000000</i>
   <i name="OMEGAMAX">     -1.00000000</i>
   <i name="DEG_THRESHOLD">      0.00200000</i>
  </separator>
  <separator name="orbital magnetization" >
   <i type="logical" name="NUCIND"> F  </i>
   <v name="MAGPOS">      0.00000000      0.00000000      0.00000000</v>
   <i type="logical" name="LNICSALL"> T  </i>
   <i type="logical" name="ORBITALMAG"> F  </i>
   <i type="logical" name="LMAGBLOCH"> F  </i>
   <i type="logical" name="LCHIMAG"> F  </i>
   <i type="logical" name="LGAUGE"> T  </i>
   <i type="int" name="MAGATOM">     0</i>
   <v name="MAGDIPOL">      0.00000000      0.00000000      0.00000000</v>
   <v name="AVECCONST">      0.00000000      0.00000000      0.00000000</v>
  </separator>
  <separator name="response functions" >
   <i type="logical" name="LADDER"> F  </i>
   <i type="logical" name="LFXC"> F  </i>
   <i type="logical" name="LHARTREE"> T  </i>
   <i type="int" name="IBSE">     0</i>
   <v type="int" name="KPOINT">    -1     0     0     0</v>
   <i type="logical" name="LTCTE"> F  </i>
   <i type="logical" name="LTETE"> F  </i>
   <i type="logical" name="LTRIPLET"> F  </i>
   <i type="logical" name="LFXCEPS"> F  </i>
   <i type="logical" name="LFXHEG"> F  </i>
   <i type="int" name="NATURALO">     0</i>
   <i type="logical" name="L2ORDER"> F  </i>
   <i type="logical" name="LUSEW"> F  </i>
   <i name="ENCUTGW">     -2.00000000</i>
   <i name="ENCUTGWSOFT">     -2.00000000</i>
   <i name="ENCUTLF">     -1.00000000</i>
   <i type="int" name="LMAXMP2">    -1</i>
   <i name="SCISSOR">      0.00000000</i>
   <i type="int" name="NOMEGA">     0</i>
   <i type="int" name="NOMEGAR">     0</i>
   <i type="int" name="NBANDSGW">    -1</i>
   <i type="int" name="NBANDSO">    -1</i>
   <i type="int" name="NBANDSV">    -1</i>
   <i type="int" name="NELM">    40</i>
   <i type="int" name="NELMHF">     1</i>
   <i type="int" name="DIM">     3</i>
   <i type="int" name="ANTIRES">     0</i>
   <i name="OMEGAMAX">    -30.00000000</i>
   <i name="OMEGAMIN">    -30.00000000</i>
   <i name="OMEGATL">   -200.00000000</i>
   <i type="int" name="OMEGAGRID">     0</i>
   <i name="CSHIFT">     -0.10000000</i>
   <i type="logical" name="SELFENERGY"> F  </i>
   <i type="logical" name="LSPECTRAL"> F  </i>
   <i type="logical" name="LSPECTRALGW"> F  </i>
   <i type="logical" name="LSINGLES"> F  </i>
   <i type="logical" name="LFERMIGW"> F  </i>
   <i type="logical" name="ODDONLYGW"> F  </i>
   <i type="logical" name="EVENONLYGW"> F  </i>
   <i type="int" name="NKREDLFX">     1</i>
   <i type="int" name="NKREDLFY">     1</i>
   <i type="int" name="NKREDLFZ">     1</i>
   <i type="int" name="MAXMEM">  1800</i>
   <i type="int" name="TELESCOPE">     0</i>
   <i type="int" name="TAUPAR">     1</i>
   <i type="int" name="OMEGAPAR">    -1</i>
   <i name="LAMBDA">      1.00000000</i>
  </separator>
  <separator name="External order field" >
   <i name="OFIELD_KAPPA">      0.00000000</i>
   <v name="OFIELD_K">      0.00000000      0.00000000      0.00000000</v>
   <i name="OFIELD_Q6_NEAR">      0.00000000</i>
   <i name="OFIELD_Q6_FAR">      0.00000000</i>
   <i name="OFIELD_A">      0.00000000</i>
  </separator>
 </parameters>
 <atominfo>
  <atoms>     154 </atoms>
  <types>       4 </types>
  <array name="atoms" >
   <dimension dim="1">ion</dimension>
   <field type="string">element</field>
   <field type="int">atomtype</field>
   <set>
    <rc><c>Sr</c><c>   1</c></rc>
    <rc><c>Sr</c><c>   1</c></rc>
    <rc><c>Sr</c><c>   1</c></rc>
    <rc><c>Sr</c><c>   1</c></rc>
    <rc><c>Sr</c><c>   1</c></rc>
    <rc><c>Sr</c><c>   1</c></rc>
    <rc><c>Sr</c><c>   1</c></rc>
    <rc><c>Sr</c><c>   1</c></rc>
    <rc><c>Sr</c><c>   1</c></rc>
    <rc><c>Sr</c><c>   1</c></rc>
    <rc><c>Sr</c><c>   1</c></rc>
    <rc><c>Sr</c><c>   1</c></rc>
    <rc><c>Sr</c><c>   1</c></rc>
    <rc><c>Sr</c><c>   1</c></rc>
    <rc><c>Sr</c><c>   1</c></rc>
    <rc><c>Sr</c><c>   1</c></rc>
    <rc><c>Sr</c><c>   1</c></rc>
    <rc><c>Sr</c><c>   1</c></rc>
    <rc><c>Sr</c><c>   1</c></rc>
    <rc><c>Sr</c><c>   1</c></rc>
    <rc><c>Sr</c><c>   1</c></rc>
    <rc><c>Sr</c><c>   1</c></rc>
    <rc><c>Sr</c><c>   1</c></rc>
    <rc><c>Sr</c><c>   1</c></rc>
    <rc><c>Sr</c><c>   1</c></rc>
    <rc><c>Sr</c><c>   1</c></rc>
    <rc><c>Sr</c><c>   1</c></rc>
    <rc><c>Sr</c><c>   1</c></rc>
    <rc><c>Sr</c><c>   1</c></rc>
    <rc><c>Sr</c><c>   1</c></rc>
    <rc><c>Sr</c><c>   1</c></rc>
    <rc><c>Sr</c><c>   1</c></rc>
    <rc><c>Ti</c><c>   2</c></rc>
    <rc><c>Ti</c><c>   2</c></rc>
    <rc><c>Ti</c><c>   2</c></rc>
    <rc><c>Ti</c><c>   2</c></rc>
    <rc><c>Ti</c><c>   2</c></rc>
    <rc><c>Ti</c><c>   2</c></rc>
    <rc><c>Ti</c><c>   2</c></rc>
    <rc><c>Ti</c><c>   2</c></rc>
    <rc><c>Ti</c><c>   2</c></rc>
    <rc><c>Ti</c><c>   2</c></rc>
    <rc><c>Ti</c><c>   2</c></rc>
    <rc><c>Ti</c><c>   2</c></rc>
    <rc><c>Ti</c><c>   2</c></rc>
    <rc><c>Ti</c><c>   2</c></rc>
    <rc><c>Ti</c><c>   2</c></rc>
    <rc><c>Ti</c><c>   2</c></rc>
    <rc><c>Ti</c><c>   2</c></rc>
    <rc><c>Ti</c><c>   2</c></rc>
    <rc><c>Ti</c><c>   2</c></rc>
    <rc><c>Ti</c><c>   2</c></rc>
    <rc><c>Fe</c><c>   3</c></rc>
    <rc><c>Fe</c><c>   3</c></rc>
    <rc><c>Fe</c><c>   3</c></rc>
    <rc><c>Fe</c><c>   3</c></rc>
    <rc><c>Fe</c><c>   3</c></rc>
    <rc><c>Fe</c><c>   3</c></rc>
    <rc><c>Fe</c><c>   3</c></rc>
    <rc><c>Fe</c><c>   3</c></rc>
    <rc><c>Fe</c><c>   3</c></rc>
    <rc><c>Fe</c><c>   3</c></rc>
    <rc><c>Fe</c><c>   3</c></rc>
    <rc><c>Fe</c><c>   3</c></rc>
    <rc><c>O </c><c>   4</c></rc>
    <rc><c>O </c><c>   4</c></rc>
    <rc><c>O </c><c>   4</c></rc>
    <rc><c>O </c><c>   4</c></rc>
    <rc><c>O </c><c>   4</c></rc>
    <rc><c>O </c><c>   4</c></rc>
    <rc><c>O </c><c>   4</c></rc>
    <rc><c>O </c><c>   4</c></rc>
    <rc><c>O </c><c>   4</c></rc>
    <rc><c>O </c><c>   4</c></rc>
    <rc><c>O </c><c>   4</c></rc>
    <rc><c>O </c><c>   4</c></rc>
    <rc><c>O </c><c>   4</c></rc>
    <rc><c>O </c><c>   4</c></rc>
    <rc><c>O </c><c>   4</c></rc>
    <rc><c>O </c><c>   4</c></rc>
    <rc><c>O </c><c>   4</c></rc>
    <rc><c>O </c><c>   4</c></rc>
    <rc><c>O </c><c>   4</c></rc>
    <rc><c>O </c><c>   4</c></rc>
    <rc><c>O </c><c>   4</c></rc>
    <rc><c>O </c><c>   4</c></rc>
    <rc><c>O </c><c>   4</c></rc>
    <rc><c>O </c><c>   4</c></rc>
    <rc><c>O </c><c>   4</c></rc>
    <rc><c>O </c><c>   4</c></rc>
    <rc><c>O </c><c>   4</c></rc>
    <rc><c>O </c><c>   4</c></rc>
    <rc><c>O </c><c>   4</c></rc>
    <rc><c>O </c><c>   4</c></rc>
    <rc><c>O </c><c>   4</c></rc>
    <rc><c>O </c><c>   4</c></rc>
    <rc><c>O </c><c>   4</c></rc>
    <rc><c>O </c><c>   4</c></rc>
    <rc><c>O </c><c>   4</c></rc>
    <rc><c>O </c><c>   4</c></rc>
    <rc><c>O </c><c>   4</c></rc>
    <rc><c>O </c><c>   4</c></rc>
    <rc><c>O </c><c>   4</c></rc>
    <rc><c>O </c><c>   4</c></rc>
    <rc><c>O </c><c>   4</c></rc>
    <rc><c>O </c><c>   4</c></rc>
    <rc><c>O </c><c>   4</c></rc>
    <rc><c>O </c><c>   4</c></rc>
    <rc><c>O </c><c>   4</c></rc>
    <rc><c>O </c><c>   4</c></rc>
    <rc><c>O </c><c>   4</c></rc>
    <rc><c>O </c><c>   4</c></rc>
    <rc><c>O </c><c>   4</c></rc>
    <rc><c>O </c><c>   4</c></rc>
    <rc><c>O </c><c>   4</c></rc>
    <rc><c>O </c><c>   4</c></rc>
    <rc><c>O </c><c>   4</c></rc>
    <rc><c>O </c><c>   4</c></rc>
    <rc><c>O </c><c>   4</c></rc>
    <rc><c>O </c><c>   4</c></rc>
    <rc><c>O </c><c>   4</c></rc>
    <rc><c>O </c><c>   4</c></rc>
    <rc><c>O </c><c>   4</c></rc>
    <rc><c>O </c><c>   4</c></rc>
    <rc><c>O </c><c>   4</c></rc>
    <rc><c>O </c><c>   4</c></rc>
    <rc><c>O </c><c>   4</c></rc>
    <rc><c>O </c><c>   4</c></rc>
    <rc><c>O </c><c>   4</c></rc>
    <rc><c>O </c><c>   4</c></rc>
    <rc><c>O </c><c>   4</c></rc>
    <rc><c>O </c><c>   4</c></rc>
    <rc><c>O </c><c>   4</c></rc>
    <rc><c>O </c><c>   4</c></rc>
    <rc><c>O </c><c>   4</c></rc>
    <rc><c>O </c><c>   4</c></rc>
    <rc><c>O </c><c>   4</c></rc>
    <rc><c>O </c><c>   4</c></rc>
    <rc><c>O </c><c>   4</c></rc>
    <rc><c>O </c><c>   4</c></rc>
    <rc><c>O </c><c>   4</c></rc>
    <rc><c>O </c><c>   4</c></rc>
    <rc><c>O </c><c>   4</c></rc>
    <rc><c>O </c><c>   4</c></rc>
    <rc><c>O </c><c>   4</c></rc>
    <rc><c>O </c><c>   4</c></rc>
    <rc><c>O </c><c>   4</c></rc>
    <rc><c>O </c><c>   4</c></rc>
    <rc><c>O </c><c>   4</c></rc>
    <rc><c>O </c><c>   4</c></rc>
    <rc><c>O </c><c>   4</c></rc>
    <rc><c>O </c><c>   4</c></rc>
    <rc><c>O </c><c>   4</c></rc>
    <rc><c>O </c><c>   4</c></rc>
   </set>
  </array>
  <array name="atomtypes" >
   <dimension dim="1">type</dimension>
   <field type="int">atomspertype</field>
   <field type="string">element</field>
   <field>mass</field>
   <field>valence</field>
   <field type="string">pseudopotential</field>
   <set>
    <rc><c>  32</c><c>Sr</c><c>     87.62000000</c><c>     10.00000000</c><c>  PAW_PBE Sr_sv 07Sep2000               </c></rc>
    <rc><c>  20</c><c>Ti</c><c>     47.88000000</c><c>      4.00000000</c><c>  PAW_PBE Ti 08Apr2002                  </c></rc>
    <rc><c>  12</c><c>Fe</c><c>     55.84700000</c><c>      8.00000000</c><c>  PAW_PBE Fe 06Sep2000                  </c></rc>
    <rc><c>  90</c><c>O </c><c>     16.00000000</c><c>      6.00000000</c><c>  PAW_PBE O 08Apr2002                   </c></rc>
   </set>
  </array>
 </atominfo>
 <structure name="initialpos" >
  <crystal>
   <varray name="basis" >
    <v>      11.25308837      -0.00229043       0.00000000 </v>
    <v>      -0.00228802      11.32330110       0.00000000 </v>
    <v>       0.00000000       0.00000000      15.77734121 </v>
   </varray>
   <i name="volume">   2010.38199253 </i>
   <varray name="rec_basis" >
    <v>       0.08886450       0.00001796       0.00000000 </v>
    <v>       0.00001798       0.08831347       0.00000000 </v>
    <v>       0.00000000       0.00000000       0.06338204 </v>
   </varray>
  </crystal>
  <varray name="positions" >
   <v>       0.00061931       0.25572181       0.11509328 </v>
   <v>       0.99981508       0.25090608       0.62826167 </v>
   <v>       0.00070599       0.73601377       0.11771563 </v>
   <v>       0.99873920       0.74961323       0.62766268 </v>
   <v>       0.50000729       0.23855635       0.11404097 </v>
   <v>       0.49833554       0.24849814       0.63026657 </v>
   <v>       0.49449751       0.74609710       0.11037815 </v>
   <v>       0.49875306       0.75087719       0.62997085 </v>
   <v>       0.00061931       0.25572181       0.38490672 </v>
   <v>       0.99981508       0.25090608       0.87173833 </v>
   <v>       0.00070599       0.73601377       0.38228437 </v>
   <v>       0.99873920       0.74961323       0.87233732 </v>
   <v>       0.50000729       0.23855635       0.38595903 </v>
   <v>       0.49833554       0.24849814       0.86973343 </v>
   <v>       0.49449751       0.74609710       0.38962185 </v>
   <v>       0.49875306       0.75087719       0.87002915 </v>
   <v>       0.25038512       0.00108691       0.11241988 </v>
   <v>       0.24836578       0.00079644       0.63038473 </v>
   <v>       0.24020333       0.51074259       0.11417186 </v>
   <v>       0.24845894       0.50102106       0.62844535 </v>
   <v>       0.74914168       0.99921811       0.11665175 </v>
   <v>       0.74944408       0.99999161       0.62910061 </v>
   <v>       0.75649020       0.51091518       0.11744153 </v>
   <v>       0.74904887       0.50078194       0.62776765 </v>
   <v>       0.25038512       0.00108691       0.38758012 </v>
   <v>       0.24836578       0.00079644       0.86961527 </v>
   <v>       0.24020333       0.51074259       0.38582814 </v>
   <v>       0.24845894       0.50102106       0.87155465 </v>
   <v>       0.74914168       0.99921811       0.38334825 </v>
   <v>       0.74944408       0.99999161       0.87089939 </v>
   <v>       0.75649020       0.51091518       0.38255847 </v>
   <v>       0.74904887       0.50078194       0.87223235 </v>
   <v>       0.99849371       0.00079294       0.00054332 </v>
   <v>       0.99849371       0.00079294       0.49945668 </v>
   <v>       0.24800323       0.25077702       0.00120700 </v>
   <v>       0.74910197       0.25079775       0.00219359 </v>
   <v>       0.49863163       0.99972363       0.50246458 </v>
   <v>       0.49770725       0.49869340       0.00103398 </v>
   <v>       0.99839257       0.49899790       0.75000000 </v>
   <v>       0.24671165       0.74953517       0.50004412 </v>
   <v>       0.49863163       0.99972363       0.99753542 </v>
   <v>       0.74757282       0.75335584       0.75000000 </v>
   <v>       0.25131351       0.25139419       0.75000000 </v>
   <v>       0.74910197       0.25079775       0.49780641 </v>
   <v>       0.24902294       0.75429448       0.75000000 </v>
   <v>       0.24800323       0.25077702       0.49879300 </v>
   <v>       0.74691162       0.25137011       0.75000000 </v>
   <v>       0.24671165       0.74953517       0.99995588 </v>
   <v>       0.74953847       0.74928769       0.49824322 </v>
   <v>       0.00574905       0.50772291       0.25000000 </v>
   <v>       0.74953847       0.74928769       0.00175678 </v>
   <v>       0.49770725       0.49869340       0.49896602 </v>
   <v>       0.49941905       0.99988704       0.75000000 </v>
   <v>       0.50630107       0.46802321       0.25000000 </v>
   <v>       0.49887589       0.49775295       0.75000000 </v>
   <v>       0.77189567       0.75966579       0.25000000 </v>
   <v>       0.99818874       0.99871571       0.75000000 </v>
   <v>       0.24523288       0.76509599       0.25000000 </v>
   <v>       0.99808147       0.49902454       0.99835993 </v>
   <v>       0.25979950       0.28053373       0.25000000 </v>
   <v>       0.01432613       0.97446342       0.25000000 </v>
   <v>       0.99808147       0.49902454       0.50164007 </v>
   <v>       0.50844175       0.95330662       0.25000000 </v>
   <v>       0.76356216       0.28456474       0.25000000 </v>
   <v>       0.99437867       0.03265069       0.13890559 </v>
   <v>       0.99600376       0.99074713       0.62007759 </v>
   <v>       0.00290808       0.50480416       0.12536638 </v>
   <v>       0.99502888       0.49039276       0.62499659 </v>
   <v>       0.48618121       0.01636332       0.13927145 </v>
   <v>       0.49933923       0.99651075       0.62280808 </v>
   <v>       0.48358013       0.53028650       0.14077116 </v>
   <v>       0.49724015       0.48293124       0.61896478 </v>
   <v>       0.99437867       0.03265069       0.36109441 </v>
   <v>       0.99600376       0.99074713       0.87992241 </v>
   <v>       0.00290808       0.50480416       0.37463362 </v>
   <v>       0.99502888       0.49039276       0.87500341 </v>
   <v>       0.48618121       0.01636332       0.36072855 </v>
   <v>       0.49933923       0.99651075       0.87719192 </v>
   <v>       0.48358013       0.53028650       0.35922884 </v>
   <v>       0.49724015       0.48293124       0.88103522 </v>
   <v>       0.23924680       0.22105224       0.36125276 </v>
   <v>       0.25314443       0.25953662       0.87798691 </v>
   <v>       0.25657499       0.73886750       0.37356512 </v>
   <v>       0.24429246       0.76174040       0.87618803 </v>
   <v>       0.74217372       0.22068623       0.35919310 </v>
   <v>       0.74269552       0.25847822       0.87922298 </v>
   <v>       0.73603167       0.73691146       0.36977793 </v>
   <v>       0.74694521       0.75915546       0.87780165 </v>
   <v>       0.23924680       0.22105224       0.13874724 </v>
   <v>       0.25314443       0.25953662       0.62201309 </v>
   <v>       0.25657499       0.73886750       0.12643488 </v>
   <v>       0.24429246       0.76174040       0.62381197 </v>
   <v>       0.74217372       0.22068623       0.14080690 </v>
   <v>       0.74269552       0.25847822       0.62077702 </v>
   <v>       0.73603167       0.73691146       0.13022207 </v>
   <v>       0.74694521       0.75915546       0.62219835 </v>
   <v>       0.16593222       0.41428258       0.25000000 </v>
   <v>       0.42520673       0.31948871       0.25000000 </v>
   <v>       0.66666208       0.42082000       0.25000000 </v>
   <v>       0.92020342       0.34396281       0.25000000 </v>
   <v>       0.11266102       0.64827048       0.25000000 </v>
   <v>       0.86055946       0.60358824       0.25000000 </v>
   <v>       0.17262812       0.91801268       0.25000000 </v>
   <v>       0.41808489       0.81151978       0.25000000 </v>
   <v>       0.66991357       0.90948501       0.25000000 </v>
   <v>       0.91443756       0.84535275       0.25000000 </v>
   <v>       0.13068732       0.11797523       0.50347264 </v>
   <v>       0.38005351       0.13169106       0.50078973 </v>
   <v>       0.62835360       0.11888701       0.49791662 </v>
   <v>       0.87878703       0.13230725       0.50109940 </v>
   <v>       0.12225941       0.36703241       0.49415733 </v>
   <v>       0.36801331       0.37864609       0.48087103 </v>
   <v>       0.61859154       0.37149633       0.48131117 </v>
   <v>       0.86448501       0.37639095       0.48909943 </v>
   <v>       0.12932468       0.62255004       0.50480154 </v>
   <v>       0.37805304       0.62977506       0.50701800 </v>
   <v>       0.62647620       0.61901838       0.50178158 </v>
   <v>       0.87634707       0.63251184       0.50130039 </v>
   <v>       0.11609338       0.87125673       0.48521506 </v>
   <v>       0.36898995       0.88177984       0.49588185 </v>
   <v>       0.61789383       0.87336310       0.49182033 </v>
   <v>       0.86892109       0.88026555       0.48697216 </v>
   <v>       0.11601215       0.13711324       0.75000000 </v>
   <v>       0.36363548       0.11752050       0.75000000 </v>
   <v>       0.61583480       0.13646588       0.75000000 </v>
   <v>       0.86279392       0.11748872       0.75000000 </v>
   <v>       0.13499006       0.38552264       0.75000000 </v>
   <v>       0.38383599       0.36389452       0.75000000 </v>
   <v>       0.63648602       0.38563500       0.75000000 </v>
   <v>       0.88406926       0.36204918       0.75000000 </v>
   <v>       0.11340961       0.63438764       0.75000000 </v>
   <v>       0.36298789       0.61701319       0.75000000 </v>
   <v>       0.61463728       0.63496359       0.75000000 </v>
   <v>       0.86273997       0.61493282       0.75000000 </v>
   <v>       0.13436444       0.88643590       0.75000000 </v>
   <v>       0.38370246       0.86415868       0.75000000 </v>
   <v>       0.63518431       0.88496032       0.75000000 </v>
   <v>       0.88327147       0.86246809       0.75000000 </v>
   <v>       0.13068732       0.11797523       0.99652736 </v>
   <v>       0.38005351       0.13169106       0.99921027 </v>
   <v>       0.62835360       0.11888701       0.00208338 </v>
   <v>       0.87878703       0.13230725       0.99890060 </v>
   <v>       0.12225941       0.36703241       0.00584267 </v>
   <v>       0.36801331       0.37864609       0.01912897 </v>
   <v>       0.61859154       0.37149633       0.01868883 </v>
   <v>       0.86448501       0.37639095       0.01090057 </v>
   <v>       0.12932468       0.62255004       0.99519846 </v>
   <v>       0.37805304       0.62977506       0.99298200 </v>
   <v>       0.62647620       0.61901838       0.99821842 </v>
   <v>       0.87634707       0.63251184       0.99869961 </v>
   <v>       0.11609338       0.87125673       0.01478494 </v>
   <v>       0.36898995       0.88177984       0.00411815 </v>
   <v>       0.61789383       0.87336310       0.00817967 </v>
   <v>       0.86892109       0.88026555       0.01302784 </v>
  </varray>
 </structure>
 <calculation>
  <scstep>
   <time name="dav">  153.85  153.88</time>
   <time name="total">  156.17  156.30</time>
   <energy>
    <i name="alphaZ">   5607.89424779 </i>
    <i name="ewald"> -61651.61655609 </i>
    <i name="hartreedc"> -16874.04859044 </i>
    <i name="XCdc">   3074.93265209 </i>
    <i name="pawpsdc"> 115586.23567991 </i>
    <i name="pawaedc">-114637.68355614 </i>
    <i name="eentropy">     -0.00000000 </i>
    <i name="bandstr">  -7112.85592783 </i>
    <i name="atom">  74916.81196153 </i>
    <i name="e_fr_energy">  -1090.33008917 </i>
    <i name="e_wo_entrp">  -1090.33008917 </i>
    <i name="e_0_energy">  -1090.33008917 </i>
   </energy>
  </scstep>
  <scstep>
   <time name="diag">   16.62   16.62</time>
   <time name="diis">   17.73   17.74</time>
   <time name="orth">    9.44    9.45</time>
   <time name="total">   46.14   46.16</time>
   <energy>
    <i name="e_fr_energy">  -1090.33009842 </i>
    <i name="e_wo_entrp">  -1090.33009842 </i>
    <i name="e_0_energy">  -1090.33009842 </i>
   </energy>
  </scstep>
  <scstep>
   <time name="diag">   16.61   16.61</time>
   <time name="diis">   15.99   15.99</time>
   <time name="orth">    9.41    9.41</time>
   <time name="total">   44.37   44.41</time>
   <energy>
    <i name="e_fr_energy">  -1090.33010061 </i>
    <i name="e_wo_entrp">  -1090.33010061 </i>
    <i name="e_0_energy">  -1090.33010061 </i>
   </energy>
  </scstep>
  <scstep>
   <time name="diag">   16.58   16.59</time>
   <time name="diis">   15.84   15.85</time>
   <time name="orth">    9.42    9.43</time>
   <time name="total">   44.23   44.32</time>
   <energy>
    <i name="e_fr_energy">  -1090.33010626 </i>
    <i name="e_wo_entrp">  -1090.33010626 </i>
    <i name="e_0_energy">  -1090.33010626 </i>
   </energy>
  </scstep>
  <scstep>
   <time name="diag">   16.61   16.62</time>
   <time name="diis">   15.77   15.77</time>
   <time name="orth">    9.43    9.43</time>
   <time name="total">   44.18   44.25</time>
   <energy>
    <i name="e_fr_energy">  -1090.33011066 </i>
    <i name="e_wo_entrp">  -1090.33011066 </i>
    <i name="e_0_energy">  -1090.33011066 </i>
   </energy>
  </scstep>
  <scstep>
   <time name="diag">   16.64   16.64</time>
   <time name="diis">   15.46   15.46</time>
   <time name="orth">    9.46    9.46</time>
   <time name="total">   43.90   43.97</time>
   <energy>
    <i name="e_fr_energy">  -1090.33011333 </i>
    <i name="e_wo_entrp">  -1090.33011333 </i>
    <i name="e_0_energy">  -1090.33011333 </i>
   </energy>
  </scstep>
  <scstep>
   <time name="diag">   16.61   16.62</time>
   <time name="diis">   15.15   15.16</time>
   <time name="orth">    9.43    9.43</time>
   <time name="total">   43.55   43.62</time>
   <energy>
    <i name="e_fr_energy">  -1090.33011451 </i>
    <i name="e_wo_entrp">  -1090.33011451 </i>
    <i name="e_0_energy">  -1090.33011451 </i>
   </energy>
  </scstep>
  <scstep>
   <time name="diag">   16.59   16.61</time>
   <time name="diis">   14.22   14.23</time>
   <time name="orth">    9.46    9.46</time>
   <time name="total">   40.85   40.93</time>
   <energy>
    <i name="alphaZ">   5607.89424779 </i>
    <i name="ewald"> -61651.61655609 </i>
    <i name="hartreedc"> -16874.05099746 </i>
    <i name="XCdc">   3074.93407849 </i>
    <i name="pawpsdc"> 115578.88932575 </i>
    <i name="pawaedc">-114630.28118079 </i>
    <i name="eentropy">     -0.00000000 </i>
    <i name="bandstr">  -7112.91099474 </i>
    <i name="atom">  74916.81196153 </i>
    <i name="e_fr_energy">  -1090.33011551 </i>
    <i name="e_wo_entrp">  -1090.33011551 </i>
    <i name="e_0_energy">  -1090.33011551 </i>
   </energy>
  </scstep>
  <structure>
   <crystal>
    <varray name="basis" >
     <v>      11.25308837      -0.00229043       0.00000000 </v>
     <v>      -0.00228802      11.32330110       0.00000000 </v>
     <v>       0.00000000       0.00000000      15.77734121 </v>
    </varray>
    <i name="volume">   2010.38199253 </i>
    <varray name="rec_basis" >
     <v>       0.08886450       0.00001796       0.00000000 </v>
     <v>       0.00001798       0.08831347       0.00000000 </v>
     <v>       0.00000000       0.00000000       0.06338204 </v>
    </varray>
   </crystal>
   <varray name="positions" >
    <v>       0.00061931       0.25572181       0.11509328 </v>
    <v>       0.99981508       0.25090608       0.62826167 </v>
    <v>       0.00070599       0.73601377       0.11771563 </v>
    <v>       0.99873920       0.74961323       0.62766268 </v>
    <v>       0.50000729       0.23855635       0.11404097 </v>
    <v>       0.49833554       0.24849814       0.63026657 </v>
    <v>       0.49449751       0.74609710       0.11037815 </v>
    <v>       0.49875306       0.75087719       0.62997085 </v>
    <v>       0.00061931       0.25572181       0.38490672 </v>
    <v>       0.99981508       0.25090608       0.87173833 </v>
    <v>       0.00070599       0.73601377       0.38228437 </v>
    <v>       0.99873920       0.74961323       0.87233732 </v>
    <v>       0.50000729       0.23855635       0.38595903 </v>
    <v>       0.49833554       0.24849814       0.86973343 </v>
    <v>       0.49449751       0.74609710       0.38962185 </v>
    <v>       0.49875306       0.75087719       0.87002915 </v>
    <v>       0.25038512       0.00108691       0.11241988 </v>
    <v>       0.24836578       0.00079644       0.63038473 </v>
    <v>       0.24020333       0.51074259       0.11417186 </v>
    <v>       0.24845894       0.50102106       0.62844535 </v>
    <v>       0.74914168       0.99921811       0.11665175 </v>
    <v>       0.74944408       0.99999161       0.62910061 </v>
    <v>       0.75649020       0.51091518       0.11744153 </v>
    <v>       0.74904887       0.50078194       0.62776765 </v>
    <v>       0.25038512       0.00108691       0.38758012 </v>
    <v>       0.24836578       0.00079644       0.86961527 </v>
    <v>       0.24020333       0.51074259       0.38582814 </v>
    <v>       0.24845894       0.50102106       0.87155465 </v>
    <v>       0.74914168       0.99921811       0.38334825 </v>
    <v>       0.74944408       0.99999161       0.87089939 </v>
    <v>       0.75649020       0.51091518       0.38255847 </v>
    <v>       0.74904887       0.50078194       0.87223235 </v>
    <v>       0.99849371       0.00079294       0.00054332 </v>
    <v>       0.99849371       0.00079294       0.49945668 </v>
    <v>       0.24800323       0.25077702       0.00120700 </v>
    <v>       0.74910197       0.25079775       0.00219359 </v>
    <v>       0.49863163       0.99972363       0.50246458 </v>
    <v>       0.49770725       0.49869340       0.00103398 </v>
    <v>       0.99839257       0.49899790       0.75000000 </v>
    <v>       0.24671165       0.74953517       0.50004412 </v>
    <v>       0.49863163       0.99972363       0.99753542 </v>
    <v>       0.74757282       0.75335584       0.75000000 </v>
    <v>       0.25131351       0.25139419       0.75000000 </v>
    <v>       0.74910197       0.25079775       0.49780641 </v>
    <v>       0.24902294       0.75429448       0.75000000 </v>
    <v>       0.24800323       0.25077702       0.49879300 </v>
    <v>       0.74691162       0.25137011       0.75000000 </v>
    <v>       0.24671165       0.74953517       0.99995588 </v>
    <v>       0.74953847       0.74928769       0.49824322 </v>
    <v>       0.00574905       0.50772291       0.25000000 </v>
    <v>       0.74953847       0.74928769       0.00175678 </v>
    <v>       0.49770725       0.49869340       0.49896602 </v>
    <v>       0.49941905       0.99988704       0.75000000 </v>
    <v>       0.50630107       0.46802321       0.25000000 </v>
    <v>       0.49887589       0.49775295       0.75000000 </v>
    <v>       0.77189567       0.75966579       0.25000000 </v>
    <v>       0.99818874       0.99871571       0.75000000 </v>
    <v>       0.24523288       0.76509599       0.25000000 </v>
    <v>       0.99808147       0.49902454       0.99835993 </v>
    <v>       0.25979950       0.28053373       0.25000000 </v>
    <v>       0.01432613       0.97446342       0.25000000 </v>
    <v>       0.99808147       0.49902454       0.50164007 </v>
    <v>       0.50844175       0.95330662       0.25000000 </v>
    <v>       0.76356216       0.28456474       0.25000000 </v>
    <v>       0.99437867       0.03265069       0.13890559 </v>
    <v>       0.99600376       0.99074713       0.62007759 </v>
    <v>       0.00290808       0.50480416       0.12536638 </v>
    <v>       0.99502888       0.49039276       0.62499659 </v>
    <v>       0.48618121       0.01636332       0.13927145 </v>
    <v>       0.49933923       0.99651075       0.62280808 </v>
    <v>       0.48358013       0.53028650       0.14077116 </v>
    <v>       0.49724015       0.48293124       0.61896478 </v>
    <v>       0.99437867       0.03265069       0.36109441 </v>
    <v>       0.99600376       0.99074713       0.87992241 </v>
    <v>       0.00290808       0.50480416       0.37463362 </v>
    <v>       0.99502888       0.49039276       0.87500341 </v>
    <v>       0.48618121       0.01636332       0.36072855 </v>
    <v>       0.49933923       0.99651075       0.87719192 </v>
    <v>       0.48358013       0.53028650       0.35922884 </v>
    <v>       0.49724015       0.48293124       0.88103522 </v>
    <v>       0.23924680       0.22105224       0.36125276 </v>
    <v>       0.25314443       0.25953662       0.87798691 </v>
    <v>       0.25657499       0.73886750       0.37356512 </v>
    <v>       0.24429246       0.76174040       0.87618803 </v>
    <v>       0.74217372       0.22068623       0.35919310 </v>
    <v>       0.74269552       0.25847822       0.87922298 </v>
    <v>       0.73603167       0.73691146       0.36977793 </v>
    <v>       0.74694521       0.75915546       0.87780165 </v>
    <v>       0.23924680       0.22105224       0.13874724 </v>
    <v>       0.25314443       0.25953662       0.62201309 </v>
    <v>       0.25657499       0.73886750       0.12643488 </v>
    <v>       0.24429246       0.76174040       0.62381197 </v>
    <v>       0.74217372       0.22068623       0.14080690 </v>
    <v>       0.74269552       0.25847822       0.62077702 </v>
    <v>       0.73603167       0.73691146       0.13022207 </v>
    <v>       0.74694521       0.75915546       0.62219835 </v>
    <v>       0.16593222       0.41428258       0.25000000 </v>
    <v>       0.42520673       0.31948871       0.25000000 </v>
    <v>       0.66666208       0.42082000       0.25000000 </v>
    <v>       0.92020342       0.34396281       0.25000000 </v>
    <v>       0.11266102       0.64827048       0.25000000 </v>
    <v>       0.86055946       0.60358824       0.25000000 </v>
    <v>       0.17262812       0.91801268       0.25000000 </v>
    <v>       0.41808489       0.81151978       0.25000000 </v>
    <v>       0.66991357       0.90948501       0.25000000 </v>
    <v>       0.91443756       0.84535275       0.25000000 </v>
    <v>       0.13068732       0.11797523       0.50347264 </v>
    <v>       0.38005351       0.13169106       0.50078973 </v>
    <v>       0.62835360       0.11888701       0.49791662 </v>
    <v>       0.87878703       0.13230725       0.50109940 </v>
    <v>       0.12225941       0.36703241       0.49415733 </v>
    <v>       0.36801331       0.37864609       0.48087103 </v>
    <v>       0.61859154       0.37149633       0.48131117 </v>
    <v>       0.86448501       0.37639095       0.48909943 </v>
    <v>       0.12932468       0.62255004       0.50480154 </v>
    <v>       0.37805304       0.62977506       0.50701800 </v>
    <v>       0.62647620       0.61901838       0.50178158 </v>
    <v>       0.87634707       0.63251184       0.50130039 </v>
    <v>       0.11609338       0.87125673       0.48521506 </v>
    <v>       0.36898995       0.88177984       0.49588185 </v>
    <v>       0.61789383       0.87336310       0.49182033 </v>
    <v>       0.86892109       0.88026555       0.48697216 </v>
    <v>       0.11601215       0.13711324       0.75000000 </v>
    <v>       0.36363548       0.11752050       0.75000000 </v>
    <v>       0.61583480       0.13646588       0.75000000 </v>
    <v>       0.86279392       0.11748872       0.75000000 </v>
    <v>       0.13499006       0.38552264       0.75000000 </v>
    <v>       0.38383599       0.36389452       0.75000000 </v>
    <v>       0.63648602       0.38563500       0.75000000 </v>
    <v>       0.88406926       0.36204918       0.75000000 </v>
    <v>       0.11340961       0.63438764       0.75000000 </v>
    <v>       0.36298789       0.61701319       0.75000000 </v>
    <v>       0.61463728       0.63496359       0.75000000 </v>
    <v>       0.86273997       0.61493282       0.75000000 </v>
    <v>       0.13436444       0.88643590       0.75000000 </v>
    <v>       0.38370246       0.86415868       0.75000000 </v>
    <v>       0.63518431       0.88496032       0.75000000 </v>
    <v>       0.88327147       0.86246809       0.75000000 </v>
    <v>       0.13068732       0.11797523       0.99652736 </v>
    <v>       0.38005351       0.13169106       0.99921027 </v>
    <v>       0.62835360       0.11888701       0.00208338 </v>
    <v>       0.87878703       0.13230725       0.99890060 </v>
    <v>       0.12225941       0.36703241       0.00584267 </v>
    <v>       0.36801331       0.37864609       0.01912897 </v>
    <v>       0.61859154       0.37149633       0.01868883 </v>
    <v>       0.86448501       0.37639095       0.01090057 </v>
    <v>       0.12932468       0.62255004       0.99519846 </v>
    <v>       0.37805304       0.62977506       0.99298200 </v>
    <v>       0.62647620       0.61901838       0.99821842 </v>
    <v>       0.87634707       0.63251184       0.99869961 </v>
    <v>       0.11609338       0.87125673       0.01478494 </v>
    <v>       0.36898995       0.88177984       0.00411815 </v>
    <v>       0.61789383       0.87336310       0.00817967 </v>
    <v>       0.86892109       0.88026555       0.01302784 </v>
   </varray>
  </structure>
  <varray name="forces" >
   <v>      -0.00965843       0.00508595      -0.00250619 </v>
   <v>      -0.02631734      -0.01613605       0.00101957 </v>
   <v>      -0.00152657       0.01906069       0.05339955 </v>
   <v>      -0.02273180       0.02000127      -0.00478044 </v>
   <v>      -0.03445194       0.02581429      -0.00955039 </v>
   <v>       0.00479538      -0.00888145      -0.01396343 </v>
   <v>       0.01558944       0.04290776       0.03425579 </v>
   <v>      -0.01808550       0.00418200       0.00104165 </v>
   <v>      -0.00965843       0.00508595       0.00250619 </v>
   <v>      -0.02631734      -0.01613605      -0.00101957 </v>
   <v>      -0.00152657       0.01906069      -0.05339955 </v>
   <v>      -0.02273180       0.02000127       0.00478044 </v>
   <v>      -0.03445194       0.02581429       0.00955039 </v>
   <v>       0.00479538      -0.00888145       0.01396343 </v>
   <v>       0.01558944       0.04290776      -0.03425579 </v>
   <v>      -0.01808550       0.00418200      -0.00104165 </v>
   <v>      -0.01915906      -0.04943710      -0.01683620 </v>
   <v>       0.01016198       0.00667907      -0.00415141 </v>
   <v>       0.01540266      -0.00243922       0.01452874 </v>
   <v>       0.01268538       0.00282785      -0.01394187 </v>
   <v>      -0.02523109      -0.04317119       0.01782060 </v>
   <v>      -0.02541183       0.01781926      -0.00379658 </v>
   <v>       0.00951766       0.01096335       0.04288568 </v>
   <v>      -0.03535814      -0.01386031      -0.00872481 </v>
   <v>      -0.01915906      -0.04943710       0.01683620 </v>
   <v>       0.01016198       0.00667907       0.00415141 </v>
   <v>       0.01540266      -0.00243922      -0.01452874 </v>
   <v>       0.01268538       0.00282785       0.01394187 </v>
   <v>      -0.02523109      -0.04317119      -0.01782060 </v>
   <v>      -0.02541183       0.01781926       0.00379658 </v>
   <v>       0.00951766       0.01096335      -0.04288568 </v>
   <v>      -0.03535814      -0.01386031       0.00872481 </v>
   <v>      -0.00976315       0.03181096      -0.02235758 </v>
   <v>      -0.00976315       0.03181096       0.02235758 </v>
   <v>       0.05337441      -0.02685016      -0.05926439 </v>
   <v>      -0.01918669      -0.01560606      -0.05915147 </v>
   <v>       0.01156146       0.02665866       0.06973055 </v>
   <v>       0.01859612       0.00621256      -0.05508001 </v>
   <v>      -0.02355606      -0.04368679      -0.00000000 </v>
   <v>       0.03115546      -0.01622052       0.00189637 </v>
   <v>       0.01156146       0.02665866      -0.06973055 </v>
   <v>      -0.01074822       0.00177342      -0.00000000 </v>
   <v>      -0.07349924      -0.01688395      -0.00000000 </v>
   <v>      -0.01918669      -0.01560606       0.05915147 </v>
   <v>       0.06460984      -0.00546427      -0.00000000 </v>
   <v>       0.05337441      -0.02685016       0.05926439 </v>
   <v>       0.01253926      -0.01291181      -0.00000000 </v>
   <v>       0.03115546      -0.01622052      -0.00189637 </v>
   <v>      -0.05629057       0.02380011      -0.02812424 </v>
   <v>      -0.00956795       0.00596331      -0.00000000 </v>
   <v>      -0.05629057       0.02380011       0.02812424 </v>
   <v>       0.01859612       0.00621256       0.05508001 </v>
   <v>       0.00302676      -0.04005475      -0.00000000 </v>
   <v>      -0.04443342       0.07682667      -0.00000000 </v>
   <v>      -0.01292664       0.01740191      -0.00000000 </v>
   <v>      -0.03748953       0.00244990      -0.00000000 </v>
   <v>      -0.01016223       0.01947804      -0.00000000 </v>
   <v>       0.01194453      -0.02514318      -0.00000000 </v>
   <v>       0.00170534      -0.01013225      -0.03581912 </v>
   <v>      -0.01505296      -0.11704645      -0.00000000 </v>
   <v>       0.00962978       0.14605205      -0.00000000 </v>
   <v>       0.00170534      -0.01013225       0.03581912 </v>
   <v>       0.02081795       0.03772788      -0.00000000 </v>
   <v>       0.04447000      -0.07509959      -0.00000000 </v>
   <v>       0.02718155       0.00987662       0.02932829 </v>
   <v>       0.00709630       0.05214975      -0.01394801 </v>
   <v>       0.02629720       0.00201437       0.00879053 </v>
   <v>      -0.00265995       0.06907504       0.04288658 </v>
   <v>       0.01656069       0.02792591       0.07252610 </v>
   <v>       0.02453500       0.04761451      -0.01929514 </v>
   <v>      -0.01441515      -0.06110947       0.03077555 </v>
   <v>       0.02412627       0.07308195      -0.01210301 </v>
   <v>       0.02718155       0.00987662      -0.02932829 </v>
   <v>       0.00709630       0.05214975       0.01394801 </v>
   <v>       0.02629720       0.00201437      -0.00879053 </v>
   <v>      -0.00265995       0.06907504      -0.04288658 </v>
   <v>       0.01656069       0.02792591      -0.07252610 </v>
   <v>       0.02453500       0.04761451       0.01929514 </v>
   <v>      -0.01441515      -0.06110947      -0.03077555 </v>
   <v>       0.02412627       0.07308195       0.01210301 </v>
   <v>      -0.01379829      -0.00679774       0.02711643 </v>
   <v>      -0.00629092      -0.08541555       0.07599073 </v>
   <v>      -0.00706895       0.00394752       0.02807731 </v>
   <v>      -0.01086069      -0.03667577       0.04509521 </v>
   <v>       0.04484144      -0.00172862      -0.01797863 </v>
   <v>       0.02035989      -0.05264374       0.06496568 </v>
   <v>      -0.00678096      -0.01859009       0.00023460 </v>
   <v>       0.00769172      -0.07073956       0.02651082 </v>
   <v>      -0.01379829      -0.00679774      -0.02711643 </v>
   <v>      -0.00629092      -0.08541555      -0.07599073 </v>
   <v>      -0.00706895       0.00394752      -0.02807731 </v>
   <v>      -0.01086069      -0.03667577      -0.04509521 </v>
   <v>       0.04484144      -0.00172862       0.01797863 </v>
   <v>       0.02035989      -0.05264374      -0.06496568 </v>
   <v>      -0.00678096      -0.01859009      -0.00023460 </v>
   <v>       0.00769172      -0.07073956      -0.02651082 </v>
   <v>      -0.00808597       0.11001433      -0.00000000 </v>
   <v>       0.04236928      -0.01436000      -0.00000000 </v>
   <v>       0.01280279       0.05005047      -0.00000000 </v>
   <v>       0.03548137       0.01448273      -0.00000000 </v>
   <v>       0.02289531       0.05967759      -0.00000000 </v>
   <v>       0.02596308       0.01820553      -0.00000000 </v>
   <v>       0.05270381      -0.01385950      -0.00000000 </v>
   <v>       0.00478687      -0.02161269      -0.00000000 </v>
   <v>      -0.00897362       0.06163422      -0.00000000 </v>
   <v>       0.00337108      -0.04306818      -0.00000000 </v>
   <v>      -0.02445804      -0.00412461      -0.00559279 </v>
   <v>      -0.06100850       0.00796877      -0.03556166 </v>
   <v>       0.01136533       0.06024118       0.00882802 </v>
   <v>      -0.00871586      -0.07805766      -0.00551685 </v>
   <v>      -0.01660291       0.03044512       0.02258368 </v>
   <v>       0.07236279      -0.04955331       0.08663992 </v>
   <v>      -0.03174542       0.00489524       0.05591188 </v>
   <v>       0.06977611       0.01822023       0.04116602 </v>
   <v>      -0.05189152      -0.02679269      -0.01176851 </v>
   <v>      -0.00683367      -0.02571152      -0.03351198 </v>
   <v>      -0.02326379      -0.01072556      -0.01134008 </v>
   <v>       0.01347972      -0.03595372      -0.00186355 </v>
   <v>       0.04239524       0.07388447       0.10666979 </v>
   <v>      -0.01338581      -0.05488723       0.04179795 </v>
   <v>       0.03452993      -0.04282805       0.03530377 </v>
   <v>       0.02733214       0.01226335       0.02830932 </v>
   <v>      -0.02781390      -0.01332625      -0.00000000 </v>
   <v>       0.01031160      -0.00821756      -0.00000000 </v>
   <v>      -0.04388329      -0.01179099      -0.00000000 </v>
   <v>       0.00152238      -0.00420409      -0.00000000 </v>
   <v>      -0.01869359       0.01628484      -0.00000000 </v>
   <v>      -0.03041621      -0.00559615      -0.00000000 </v>
   <v>       0.00245972      -0.00586062      -0.00000000 </v>
   <v>      -0.00098131       0.05249346      -0.00000000 </v>
   <v>      -0.03960784      -0.01181643      -0.00000000 </v>
   <v>       0.00147406      -0.00378052      -0.00000000 </v>
   <v>      -0.03000525      -0.00303545      -0.00000000 </v>
   <v>       0.03617811      -0.01969164      -0.00000000 </v>
   <v>      -0.03718013      -0.01657603      -0.00000000 </v>
   <v>       0.01155394       0.04768499      -0.00000000 </v>
   <v>      -0.05517048       0.02788115      -0.00000000 </v>
   <v>       0.00428815       0.02228714      -0.00000000 </v>
   <v>      -0.02445804      -0.00412461       0.00559279 </v>
   <v>      -0.06100850       0.00796877       0.03556166 </v>
   <v>       0.01136533       0.06024118      -0.00882802 </v>
   <v>      -0.00871586      -0.07805766       0.00551685 </v>
   <v>      -0.01660291       0.03044512      -0.02258368 </v>
   <v>       0.07236279      -0.04955331      -0.08663992 </v>
   <v>      -0.03174542       0.00489524      -0.05591188 </v>
   <v>       0.06977611       0.01822023      -0.04116602 </v>
   <v>      -0.05189152      -0.02679269       0.01176851 </v>
   <v>      -0.00683367      -0.02571152       0.03351198 </v>
   <v>      -0.02326379      -0.01072556       0.01134008 </v>
   <v>       0.01347972      -0.03595372       0.00186355 </v>
   <v>       0.04239524       0.07388447      -0.10666979 </v>
   <v>      -0.01338581      -0.05488723      -0.04179795 </v>
   <v>       0.03452993      -0.04282805      -0.03530377 </v>
   <v>       0.02733214       0.01226335      -0.02830932 </v>
  </varray>
  <varray name="stress" >
   <v>      -0.41805343      -0.14611548       0.00000000 </v>
   <v>      -0.14611533       0.39080805       0.00000000 </v>
   <v>       0.00000000       0.00000000       0.29810615 </v>
  </varray>
  <energy>
   <i name="e_fr_energy">  -1090.33011551 </i>
   <i name="e_wo_entrp">  -1090.33011551 </i>
   <i name="e_0_energy">     -0.00000000 </i>
  </energy>
  <time name="totalsc">  554.97  556.94</time>
 </calculation>
 <calculation>
  <scstep>
   <time name="dav">  142.46  142.56</time>
   <time name="total">  144.80  144.97</time>
   <energy>
    <i name="alphaZ">   5607.29740960 </i>
    <i name="ewald"> -61652.13970046 </i>
    <i name="hartreedc"> -16870.80421815 </i>
    <i name="XCdc">   3074.77136194 </i>
    <i name="pawpsdc"> 115578.86256717 </i>
    <i name="pawaedc">-114630.25322978 </i>
    <i name="eentropy">     -0.00000000 </i>
    <i name="bandstr">  -7114.87309126 </i>
    <i name="atom">  74916.81196153 </i>
    <i name="e_fr_energy">  -1090.32693941 </i>
    <i name="e_wo_entrp">  -1090.32693941 </i>
    <i name="e_0_energy">  -1090.32693941 </i>
   </energy>
  </scstep>
  <scstep>
   <time name="diag">   16.61   16.62</time>
   <time name="diis">   25.99   26.02</time>
   <time name="orth">    9.44    9.45</time>
   <time name="total">   54.42   54.50</time>
   <energy>
    <i name="e_fr_energy">  -1090.34492045 </i>
    <i name="e_wo_entrp">  -1090.34492045 </i>
    <i name="e_0_energy">  -1090.34492045 </i>
   </energy>
  </scstep>
  <scstep>
   <time name="diag">   16.58   16.59</time>
   <time name="diis">   26.53   26.53</time>
   <time name="orth">    9.47    9.48</time>
   <time name="total">   54.94   55.01</time>
   <energy>
    <i name="e_fr_energy">  -1090.34630941 </i>
    <i name="e_wo_entrp">  -1090.34630941 </i>
    <i name="e_0_energy">  -1090.34630941 </i>
   </energy>
  </scstep>
  <scstep>
   <time name="diag">   16.60   16.60</time>
   <time name="diis">   31.05   31.09</time>
   <time name="orth">    9.43    9.45</time>
   <time name="total">   59.44   59.58</time>
   <energy>
    <i name="e_fr_energy">  -1090.34569891 </i>
    <i name="e_wo_entrp">  -1090.34569891 </i>
    <i name="e_0_energy">  -1090.34569891 </i>
   </energy>
  </scstep>
  <scstep>
   <time name="diag">   16.62   16.62</time>
   <time name="diis">   26.15   26.15</time>
   <time name="orth">    9.43    9.43</time>
   <time name="total">   54.56   54.63</time>
   <energy>
    <i name="e_fr_energy">  -1090.34552394 </i>
    <i name="e_wo_entrp">  -1090.34552394 </i>
    <i name="e_0_energy">  -1090.34552394 </i>
   </energy>
  </scstep>
  <scstep>
   <time name="diag">   16.59   16.61</time>
   <time name="diis">   17.34   17.35</time>
   <time name="orth">    9.46    9.46</time>
   <time name="total">   45.76   45.85</time>
   <energy>
    <i name="e_fr_energy">  -1090.34551138 </i>
    <i name="e_wo_entrp">  -1090.34551138 </i>
    <i name="e_0_energy">  -1090.34551138 </i>
   </energy>
  </scstep>
  <scstep>
   <time name="diag">   16.62   16.62</time>
   <time name="diis">   16.27   16.29</time>
   <time name="orth">    9.43    9.44</time>
   <time name="total">   44.69   44.77</time>
   <energy>
    <i name="e_fr_energy">  -1090.34551277 </i>
    <i name="e_wo_entrp">  -1090.34551277 </i>
    <i name="e_0_energy">  -1090.34551277 </i>
   </energy>
  </scstep>
  <scstep>
   <time name="diag">   16.57   16.58</time>
   <time name="diis">   16.12   16.13</time>
   <time name="orth">    9.40    9.42</time>
   <time name="total">   42.66   42.74</time>
   <energy>
    <i name="alphaZ">   5607.29740960 </i>
    <i name="ewald"> -61652.13970046 </i>
    <i name="hartreedc"> -16872.21218048 </i>
    <i name="XCdc">   3074.86252785 </i>
    <i name="pawpsdc"> 115505.95143219 </i>
    <i name="pawaedc">-114557.34200142 </i>
    <i name="eentropy">     -0.00000000 </i>
    <i name="bandstr">  -7113.57496244 </i>
    <i name="atom">  74916.81196153 </i>
    <i name="e_fr_energy">  -1090.34551363 </i>
    <i name="e_wo_entrp">  -1090.34551363 </i>
    <i name="e_0_energy">  -1090.34551363 </i>
   </energy>
  </scstep>
  <structure>
   <crystal>
    <varray name="basis" >
     <v>      11.25123931      -0.00293710       0.00000000 </v>
     <v>      -0.00293799      11.32504070       0.00000000 </v>
     <v>       0.00000000       0.00000000      15.77918998 </v>
    </varray>
    <i name="volume">   2010.59597668 </i>
    <varray name="rec_basis" >
     <v>       0.08887910       0.00002306       0.00000000 </v>
     <v>       0.00002305       0.08829991       0.00000000 </v>
     <v>       0.00000000       0.00000000       0.06337461 </v>
    </varray>
   </crystal>
   <varray name="positions" >
    <v>       0.00057791       0.25574347       0.11508562 </v>
    <v>       0.99970224       0.25083731       0.62826479 </v>
    <v>       0.00069946       0.73609497       0.11787891 </v>
    <v>       0.99864176       0.74969843       0.62764807 </v>
    <v>       0.49985961       0.23866631       0.11401177 </v>
    <v>       0.49835609       0.24846030       0.63022387 </v>
    <v>       0.49456438       0.74627992       0.11048290 </v>
    <v>       0.49867553       0.75089499       0.62997403 </v>
    <v>       0.00057791       0.25574347       0.38491438 </v>
    <v>       0.99970224       0.25083731       0.87173521 </v>
    <v>       0.00069946       0.73609497       0.38212109 </v>
    <v>       0.99864176       0.74969843       0.87235193 </v>
    <v>       0.49985961       0.23866631       0.38598823 </v>
    <v>       0.49835609       0.24846030       0.86977613 </v>
    <v>       0.49456438       0.74627992       0.38951710 </v>
    <v>       0.49867553       0.75089499       0.87002597 </v>
    <v>       0.25030295       0.00087627       0.11236840 </v>
    <v>       0.24840935       0.00082491       0.63037203 </v>
    <v>       0.24026936       0.51073221       0.11421628 </v>
    <v>       0.24851333       0.50103312       0.62840272 </v>
    <v>       0.74903347       0.99903416       0.11670624 </v>
    <v>       0.74933515       0.00006750       0.62908900 </v>
    <v>       0.75653101       0.51096190       0.11757266 </v>
    <v>       0.74889727       0.50072286       0.62774097 </v>
    <v>       0.25030295       0.00087627       0.38763160 </v>
    <v>       0.24840935       0.00082491       0.86962797 </v>
    <v>       0.24026936       0.51073221       0.38578372 </v>
    <v>       0.24851333       0.50103312       0.87159728 </v>
    <v>       0.74903347       0.99903416       0.38329376 </v>
    <v>       0.74933515       0.00006750       0.87091100 </v>
    <v>       0.75653101       0.51096190       0.38242734 </v>
    <v>       0.74889727       0.50072286       0.87225903 </v>
    <v>       0.99845189       0.00092846       0.00047495 </v>
    <v>       0.99845189       0.00092846       0.49952505 </v>
    <v>       0.24823202       0.25066268       0.00102578 </v>
    <v>       0.74901970       0.25073124       0.00201272 </v>
    <v>       0.49868122       0.99983722       0.50267779 </v>
    <v>       0.49778698       0.49871988       0.00086556 </v>
    <v>       0.99829155       0.49881175       0.75000000 </v>
    <v>       0.24684520       0.74946609       0.50004992 </v>
    <v>       0.49868122       0.99983722       0.99732221 </v>
    <v>       0.74752674       0.75336338       0.75000000 </v>
    <v>       0.25099840       0.25132219       0.75000000 </v>
    <v>       0.74901970       0.25073124       0.49798728 </v>
    <v>       0.24929992       0.75427126       0.75000000 </v>
    <v>       0.24823202       0.25066268       0.49897422 </v>
    <v>       0.74696537       0.25131511       0.75000000 </v>
    <v>       0.24684520       0.74946609       0.99995008 </v>
    <v>       0.74929717       0.74938904       0.49815723 </v>
    <v>       0.00570804       0.50774831       0.25000000 </v>
    <v>       0.74929717       0.74938904       0.00184277 </v>
    <v>       0.49778698       0.49871988       0.49913444 </v>
    <v>       0.49943199       0.99971639       0.75000000 </v>
    <v>       0.50611065       0.46835049       0.25000000 </v>
    <v>       0.49882049       0.49782708       0.75000000 </v>
    <v>       0.77173496       0.75967620       0.25000000 </v>
    <v>       0.99814519       0.99879869       0.75000000 </v>
    <v>       0.24528406       0.76498888       0.25000000 </v>
    <v>       0.99808878       0.49898137       0.99825040 </v>
    <v>       0.25973486       0.28003504       0.25000000 </v>
    <v>       0.01436754       0.97508568       0.25000000 </v>
    <v>       0.99808878       0.49898137       0.50174960 </v>
    <v>       0.50853103       0.95346738       0.25000000 </v>
    <v>       0.76375274       0.28424482       0.25000000 </v>
    <v>       0.99449521       0.03269279       0.13899526 </v>
    <v>       0.99603423       0.99096932       0.62003494 </v>
    <v>       0.00302082       0.50481277       0.12539326 </v>
    <v>       0.99501754       0.49068706       0.62512773 </v>
    <v>       0.48625223       0.01648231       0.13949321 </v>
    <v>       0.49944445       0.99671363       0.62274909 </v>
    <v>       0.48351828       0.53002613       0.14086527 </v>
    <v>       0.49734365       0.48324263       0.61892777 </v>
    <v>       0.99449521       0.03269279       0.36100474 </v>
    <v>       0.99603423       0.99096932       0.87996506 </v>
    <v>       0.00302082       0.50481277       0.37460674 </v>
    <v>       0.99501754       0.49068706       0.87487227 </v>
    <v>       0.48625223       0.01648231       0.36050679 </v>
    <v>       0.49944445       0.99671363       0.87725091 </v>
    <v>       0.48351828       0.53002613       0.35913473 </v>
    <v>       0.49734365       0.48324263       0.88107223 </v>
    <v>       0.23918764       0.22102326       0.36133567 </v>
    <v>       0.25311739       0.25917271       0.87821927 </v>
    <v>       0.25654469       0.73888431       0.37365098 </v>
    <v>       0.24424587       0.76158414       0.87632592 </v>
    <v>       0.74236595       0.22067890       0.35913812 </v>
    <v>       0.74278276       0.25825395       0.87942163 </v>
    <v>       0.73600259       0.73683225       0.36977865 </v>
    <v>       0.74697812       0.75885408       0.87788271 </v>
    <v>       0.23918764       0.22102326       0.13866433 </v>
    <v>       0.25311739       0.25917271       0.62178073 </v>
    <v>       0.25654469       0.73888431       0.12634902 </v>
    <v>       0.24424587       0.76158414       0.62367408 </v>
    <v>       0.74236595       0.22067890       0.14086188 </v>
    <v>       0.74278276       0.25825395       0.62057837 </v>
    <v>       0.73600259       0.73683225       0.13022135 </v>
    <v>       0.74697812       0.75885408       0.62211729 </v>
    <v>       0.16589765       0.41475129       0.25000000 </v>
    <v>       0.42538836       0.31942756       0.25000000 </v>
    <v>       0.66671701       0.42103325       0.25000000 </v>
    <v>       0.92035555       0.34402454       0.25000000 </v>
    <v>       0.11275923       0.64852476       0.25000000 </v>
    <v>       0.86067078       0.60366583       0.25000000 </v>
    <v>       0.17285405       0.91795368       0.25000000 </v>
    <v>       0.41810540       0.81142771       0.25000000 </v>
    <v>       0.66987515       0.90974759       0.25000000 </v>
    <v>       0.91445198       0.84516926       0.25000000 </v>
    <v>       0.13058246       0.11795763       0.50345554 </v>
    <v>       0.37979197       0.13172496       0.50068099 </v>
    <v>       0.62840238       0.11914367       0.49794361 </v>
    <v>       0.87874959       0.13197468       0.50108253 </v>
    <v>       0.12218826       0.36716210       0.49422638 </v>
    <v>       0.36832349       0.37843503       0.48113595 </v>
    <v>       0.61845545       0.37151716       0.48148213 </v>
    <v>       0.86478416       0.37646864       0.48922531 </v>
    <v>       0.12910219       0.62243585       0.50476555 </v>
    <v>       0.37802372       0.62966551       0.50691553 </v>
    <v>       0.62637646       0.61897266       0.50174690 </v>
    <v>       0.87640483       0.63235867       0.50129469 </v>
    <v>       0.11627519       0.87157155       0.48554123 </v>
    <v>       0.36893251       0.88154598       0.49600966 </v>
    <v>       0.61804183       0.87318066       0.49192828 </v>
    <v>       0.86903828       0.88031782       0.48705872 </v>
    <v>       0.11589290       0.13705644       0.75000000 </v>
    <v>       0.36367968       0.11748550       0.75000000 </v>
    <v>       0.61564666       0.13641561       0.75000000 </v>
    <v>       0.86280044       0.11747081       0.75000000 </v>
    <v>       0.13490994       0.38559201       0.75000000 </v>
    <v>       0.38370559       0.36387065       0.75000000 </v>
    <v>       0.63649656       0.38561003       0.75000000 </v>
    <v>       0.88406509       0.36227282       0.75000000 </v>
    <v>       0.11323980       0.63433726       0.75000000 </v>
    <v>       0.36299420       0.61699708       0.75000000 </v>
    <v>       0.61450865       0.63495063       0.75000000 </v>
    <v>       0.86289505       0.61484895       0.75000000 </v>
    <v>       0.13420503       0.88636524       0.75000000 </v>
    <v>       0.38375204       0.86436185       0.75000000 </v>
    <v>       0.63494782       0.88507906       0.75000000 </v>
    <v>       0.88328988       0.86256305       0.75000000 </v>
    <v>       0.13058246       0.11795763       0.99654446 </v>
    <v>       0.37979197       0.13172496       0.99931901 </v>
    <v>       0.62840238       0.11914367       0.00205639 </v>
    <v>       0.87874959       0.13197468       0.99891747 </v>
    <v>       0.12218826       0.36716210       0.00577362 </v>
    <v>       0.36832349       0.37843503       0.01886405 </v>
    <v>       0.61845545       0.37151716       0.01851787 </v>
    <v>       0.86478416       0.37646864       0.01077469 </v>
    <v>       0.12910219       0.62243585       0.99523445 </v>
    <v>       0.37802372       0.62966551       0.99308447 </v>
    <v>       0.62637646       0.61897266       0.99825310 </v>
    <v>       0.87640483       0.63235867       0.99870531 </v>
    <v>       0.11627519       0.87157155       0.01445877 </v>
    <v>       0.36893251       0.88154598       0.00399034 </v>
    <v>       0.61804183       0.87318066       0.00807172 </v>
    <v>       0.86903828       0.88031782       0.01294128 </v>
   </varray>
  </structure>
  <varray name="forces" >
   <v>      -0.00249642       0.02027664      -0.01406799 </v>
   <v>      -0.02169193      -0.00684700      -0.02886316 </v>
   <v>       0.01132974       0.01034419       0.03139448 </v>
   <v>      -0.01053064      -0.00199912      -0.01495896 </v>
   <v>      -0.02840460       0.03922140       0.01099680 </v>
   <v>      -0.00702948       0.00839115      -0.00754469 </v>
   <v>      -0.00007005       0.01256200       0.02967020 </v>
   <v>      -0.01261838      -0.01259096      -0.01464390 </v>
   <v>      -0.00249642       0.02027664       0.01406799 </v>
   <v>      -0.02169193      -0.00684700       0.02886316 </v>
   <v>       0.01132974       0.01034419      -0.03139448 </v>
   <v>      -0.01053064      -0.00199912       0.01495896 </v>
   <v>      -0.02840460       0.03922140      -0.01099680 </v>
   <v>      -0.00702948       0.00839115       0.00754469 </v>
   <v>      -0.00007005       0.01256200      -0.02967020 </v>
   <v>      -0.01261838      -0.01259096       0.01464390 </v>
   <v>      -0.02656848      -0.04547438      -0.01394647 </v>
   <v>      -0.02027401      -0.00708803      -0.01654466 </v>
   <v>       0.00395980      -0.01241634       0.00686134 </v>
   <v>      -0.01250921       0.01063454      -0.02687099 </v>
   <v>       0.00087282      -0.01931644       0.01197722 </v>
   <v>      -0.00030823       0.00502021      -0.01004803 </v>
   <v>       0.01902449      -0.00533060       0.03234789 </v>
   <v>      -0.00422285       0.00894971      -0.01979628 </v>
   <v>      -0.02656848      -0.04547438       0.01394647 </v>
   <v>      -0.02027401      -0.00708803       0.01654466 </v>
   <v>       0.00395980      -0.01241634      -0.00686134 </v>
   <v>      -0.01250921       0.01063454       0.02687099 </v>
   <v>       0.00087282      -0.01931644      -0.01197722 </v>
   <v>      -0.00030823       0.00502021       0.01004803 </v>
   <v>       0.01902449      -0.00533060      -0.03234789 </v>
   <v>      -0.00422285       0.00894971       0.01979628 </v>
   <v>       0.01255390       0.00868058      -0.00916806 </v>
   <v>       0.01255390       0.00868058       0.00916806 </v>
   <v>      -0.06147818       0.03379042       0.03203506 </v>
   <v>       0.05697632       0.04777429       0.03637218 </v>
   <v>      -0.01369153      -0.01014579      -0.00578848 </v>
   <v>       0.00500531       0.01170718       0.01452511 </v>
   <v>      -0.00975627       0.05391808      -0.00000000 </v>
   <v>      -0.04785318      -0.03846123      -0.02274260 </v>
   <v>      -0.01369153      -0.01014579       0.00578848 </v>
   <v>       0.04677097      -0.02437610      -0.00000000 </v>
   <v>      -0.00323564       0.00317863      -0.00000000 </v>
   <v>       0.05697632       0.04777429      -0.03637218 </v>
   <v>      -0.09185793      -0.02882175      -0.00000000 </v>
   <v>      -0.06147818       0.03379042      -0.03203506 </v>
   <v>       0.00157020      -0.00572775      -0.00000000 </v>
   <v>      -0.04785318      -0.03846123       0.02274260 </v>
   <v>       0.05514128      -0.05049368      -0.00848234 </v>
   <v>       0.02959150      -0.00685861      -0.00000000 </v>
   <v>       0.05514128      -0.05049368       0.00848234 </v>
   <v>       0.00500531       0.01170718      -0.01452511 </v>
   <v>      -0.00920796       0.00402026      -0.00000000 </v>
   <v>       0.00206214      -0.00568448      -0.00000000 </v>
   <v>      -0.00957323       0.00830336      -0.00000000 </v>
   <v>       0.00146571       0.00225987      -0.00000000 </v>
   <v>       0.00174707      -0.01709082      -0.00000000 </v>
   <v>       0.00324362      -0.01821859      -0.00000000 </v>
   <v>       0.00618421       0.00915596      -0.00777588 </v>
   <v>      -0.02895842       0.02083158      -0.00000000 </v>
   <v>       0.00661307      -0.00458905      -0.00000000 </v>
   <v>       0.00618421       0.00915596       0.00777588 </v>
   <v>      -0.02808894       0.01578615      -0.00000000 </v>
   <v>       0.00880209       0.01681751      -0.00000000 </v>
   <v>       0.01734381       0.02059553       0.01112104 </v>
   <v>      -0.00400554       0.05168546       0.04249825 </v>
   <v>       0.01586101       0.00488699       0.01441658 </v>
   <v>      -0.00512770       0.04140452       0.03447439 </v>
   <v>       0.01338391       0.03251128       0.00519445 </v>
   <v>       0.02169363       0.04429157       0.00574200 </v>
   <v>      -0.02404010      -0.02052417      -0.02015747 </v>
   <v>       0.02593756       0.05365645       0.06328355 </v>
   <v>       0.01734381       0.02059553      -0.01112104 </v>
   <v>      -0.00400554       0.05168546      -0.04249825 </v>
   <v>       0.01586101       0.00488699      -0.01441658 </v>
   <v>      -0.00512770       0.04140452      -0.03447439 </v>
   <v>       0.01338391       0.03251128      -0.00519445 </v>
   <v>       0.02169363       0.04429157      -0.00574200 </v>
   <v>      -0.02404010      -0.02052417       0.02015747 </v>
   <v>       0.02593756       0.05365645      -0.06328355 </v>
   <v>      -0.00451447      -0.00496975       0.00405050 </v>
[...]
       <r>   -16.5425     0.0000    32.0000 </r>
       <r>   -16.3899     0.0000    32.0000 </r>
       <r>   -16.2374     0.0000    32.0000 </r>
       <r>   -16.0848     0.0000    32.0000 </r>
       <r>   -15.9322     0.0000    32.0000 </r>
       <r>   -15.7797     0.0000    32.0000 </r>
       <r>   -15.6271     0.0000    32.0000 </r>
       <r>   -15.4746     0.0000    32.0000 </r>
       <r>   -15.3220     0.0199    32.0030 </r>
       <r>   -15.1694     6.9518    33.0636 </r>
       <r>   -15.0169    33.4301    38.1638 </r>
       <r>   -14.8643    53.4989    46.3257 </r>
       <r>   -14.7118    43.8423    53.0143 </r>
       <r>   -14.5592    26.8381    57.1088 </r>
       <r>   -14.4066    33.1863    62.1717 </r>
       <r>   -14.2541    62.6521    71.7301 </r>
       <r>   -14.1015   107.7231    88.1645 </r>
       <r>   -13.9489    94.7362   102.6176 </r>
       <r>   -13.7964    84.7736   115.5508 </r>
       <r>   -13.6438    39.4378   121.5675 </r>
       <r>   -13.4913     2.8348   122.0000 </r>
       <r>   -13.3387     0.0000   122.0000 </r>
       <r>   -13.1861     0.0000   122.0000 </r>
       <r>   -13.0336     0.0000   122.0000 </r>
       <r>   -12.8810     0.0000   122.0000 </r>
       <r>   -12.7285     5.5409   122.8453 </r>
       <r>   -12.5759    78.8409   134.8734 </r>
       <r>   -12.4233   120.6235   153.2760 </r>
       <r>   -12.2708   135.0111   173.8735 </r>
       <r>   -12.1182   124.4779   192.8641 </r>
       <r>   -11.9656    80.3990   205.1299 </r>
       <r>   -11.8131    63.0080   214.7425 </r>
       <r>   -11.6605    18.3113   217.5361 </r>
       <r>   -11.5080     3.0405   218.0000 </r>
       <r>   -11.3554     0.0000   218.0000 </r>
       <r>   -11.2028     0.0000   218.0000 </r>
       <r>   -11.0503     0.0000   218.0000 </r>
       <r>   -10.8977     0.0000   218.0000 </r>
       <r>   -10.7451     0.0000   218.0000 </r>
       <r>   -10.5926     0.0000   218.0000 </r>
       <r>   -10.4400     0.0000   218.0000 </r>
       <r>   -10.2875     0.0000   218.0000 </r>
       <r>   -10.1349     0.0000   218.0000 </r>
       <r>    -9.9823     0.0000   218.0000 </r>
       <r>    -9.8298     0.0000   218.0000 </r>
       <r>    -9.6772     0.0000   218.0000 </r>
       <r>    -9.5247     0.0000   218.0000 </r>
       <r>    -9.3721     0.0000   218.0000 </r>
       <r>    -9.2195     0.0000   218.0000 </r>
       <r>    -9.0670     0.0000   218.0000 </r>
       <r>    -8.9144     0.0000   218.0000 </r>
       <r>    -8.7618     0.0000   218.0000 </r>
       <r>    -8.6093     0.0000   218.0000 </r>
       <r>    -8.4567     0.0000   218.0000 </r>
       <r>    -8.3042     0.0000   218.0000 </r>
       <r>    -8.1516     0.0000   218.0000 </r>
       <r>    -7.9990     0.0000   218.0000 </r>
       <r>    -7.8465     0.0000   218.0000 </r>
       <r>    -7.6939     0.0000   218.0000 </r>
       <r>    -7.5414     0.0000   218.0000 </r>
       <r>    -7.3888     0.0000   218.0000 </r>
       <r>    -7.2362     0.0000   218.0000 </r>
       <r>    -7.0837     0.0000   218.0000 </r>
       <r>    -6.9311     0.0000   218.0000 </r>
       <r>    -6.7785     0.0000   218.0000 </r>
       <r>    -6.6260     0.0000   218.0000 </r>
       <r>    -6.4734     0.0000   218.0000 </r>
       <r>    -6.3209     0.0000   218.0000 </r>
       <r>    -6.1683     0.0000   218.0000 </r>
       <r>    -6.0157     0.0000   218.0000 </r>
       <r>    -5.8632     0.0000   218.0000 </r>
       <r>    -5.7106     0.0000   218.0000 </r>
       <r>    -5.5580     0.0000   218.0000 </r>
       <r>    -5.4055     0.0000   218.0000 </r>
       <r>    -5.2529     0.0000   218.0000 </r>
       <r>    -5.1004     0.0001   218.0000 </r>
       <r>    -4.9478     3.7909   218.5784 </r>
       <r>    -4.7952     8.8766   219.9326 </r>
       <r>    -4.6427     5.9139   220.8348 </r>
       <r>    -4.4901     7.7113   222.0113 </r>
       <r>    -4.3376    24.5060   225.7500 </r>
       <r>    -4.1850    13.2223   227.7672 </r>
       <r>    -4.0324     1.5261   228.0000 </r>
       <r>    -3.8799     0.0000   228.0000 </r>
       <r>    -3.7273     0.0000   228.0000 </r>
       <r>    -3.5747     0.0000   228.0000 </r>
       <r>    -3.4222     0.0000   228.0000 </r>
       <r>    -3.2696     0.0000   228.0000 </r>
       <r>    -3.1171     0.0000   228.0000 </r>
       <r>    -2.9645     0.0000   228.0000 </r>
       <r>    -2.8119     0.0000   228.0000 </r>
       <r>    -2.6594     0.0012   228.0002 </r>
       <r>    -2.5068     5.1060   228.7792 </r>
       <r>    -2.3543    10.1879   230.3335 </r>
       <r>    -2.2017    15.1158   232.6396 </r>
       <r>    -2.0491    18.9448   235.5298 </r>
       <r>    -1.8966    30.4673   240.1780 </r>
       <r>    -1.7440    39.0504   246.1356 </r>
       <r>    -1.5914    39.9510   252.2305 </r>
       <r>    -1.4389    49.4170   259.7697 </r>
       <r>    -1.2863    50.3691   267.4541 </r>
       <r>    -1.1338    77.8056   279.3242 </r>
       <r>    -0.9812    82.5867   291.9238 </r>
       <r>    -0.8286    73.1894   303.0897 </r>
       <r>    -0.6761    84.5207   315.9844 </r>
       <r>    -0.5235    95.1797   330.5052 </r>
       <r>    -0.3709    87.7276   343.8890 </r>
       <r>    -0.2184    64.5194   353.7322 </r>
       <r>    -0.0658    51.8761   361.6465 </r>
       <r>     0.0867    56.1588   370.2142 </r>
       <r>     0.2393    54.5608   378.5381 </r>
       <r>     0.3919    48.1246   385.8801 </r>
       <r>     0.5444    55.0882   394.2844 </r>
       <r>     0.6970    56.4135   402.8910 </r>
       <r>     0.8495    50.1472   410.5415 </r>
       <r>     1.0021    64.1629   420.3303 </r>
       <r>     1.1547    72.7264   431.4256 </r>
       <r>     1.3072    95.7995   446.0409 </r>
       <r>     1.4598    75.9475   457.6276 </r>
       <r>     1.6124    93.9895   471.9668 </r>
       <r>     1.7649    64.1221   481.7494 </r>
       <r>     1.9175    35.6443   487.1874 </r>
       <r>     2.0700    44.2669   493.9408 </r>
       <r>     2.2226    23.6088   497.5426 </r>
       <r>     2.3752     2.9981   498.0000 </r>
       <r>     2.5277     0.0000   498.0000 </r>
       <r>     2.6803     0.0000   498.0000 </r>
       <r>     2.8328     0.0000   498.0000 </r>
       <r>     2.9854     0.0000   498.0000 </r>
       <r>     3.1380     0.0000   498.0000 </r>
       <r>     3.2905     0.0000   498.0000 </r>
       <r>     3.4431     0.0000   498.0000 </r>
       <r>     3.5957     0.0000   498.0000 </r>
       <r>     3.7482     0.0000   498.0000 </r>
       <r>     3.9008     0.0000   498.0000 </r>
       <r>     4.0533     0.0000   498.0000 </r>
       <r>     4.2059     0.0000   498.0000 </r>
       <r>     4.3585     0.0151   498.0023 </r>
       <r>     4.5110    12.1735   499.8595 </r>
       <r>     4.6636    43.0103   506.4212 </r>
       <r>     4.8162    34.9479   511.7529 </r>
       <r>     4.9687    45.4429   518.6858 </r>
       <r>     5.1213    59.5768   527.7749 </r>
       <r>     5.2738    64.6660   537.6405 </r>
       <r>     5.4264    69.3058   548.2139 </r>
       <r>     5.5790    67.5884   558.5253 </r>
       <r>     5.7315    61.4956   567.9072 </r>
       <r>     5.8841    82.6632   580.5185 </r>
       <r>     6.0366    86.9824   593.7886 </r>
       <r>     6.1892    61.4890   603.1695 </r>
       <r>     6.3418    45.6908   610.1402 </r>
       <r>     6.4943    12.0521   611.9789 </r>
       <r>     6.6469    17.6134   614.6660 </r>
       <r>     6.7995    20.8827   617.8519 </r>
       <r>     6.9520    16.5466   620.3763 </r>
       <r>     7.1046    13.0847   622.3725 </r>
       <r>     7.2571    12.1028   624.2189 </r>
       <r>     7.4097    20.1912   627.2993 </r>
       <r>     7.5623    19.4088   630.2604 </r>
       <r>     7.7148    11.1188   631.9567 </r>
       <r>     7.8674    14.0537   634.1007 </r>
       <r>     8.0199    27.5119   638.2980 </r>
       <r>     8.1725    32.9895   643.3309 </r>
       <r>     8.3251    20.9318   646.5243 </r>
       <r>     8.4776    19.4420   649.4904 </r>
       <r>     8.6302    26.2527   653.4956 </r>
       <r>     8.7828    27.5099   657.6925 </r>
       <r>     8.9353    28.9372   662.1072 </r>
       <r>     9.0879    36.8419   667.7279 </r>
       <r>     9.2404    32.6435   672.7081 </r>
       <r>     9.3930    36.7194   678.3100 </r>
       <r>     9.5456    57.0705   687.0168 </r>
       <r>     9.6981    49.3876   694.5515 </r>
       <r>     9.8507    57.3275   703.2974 </r>
       <r>    10.0033    65.5235   713.2938 </r>
       <r>    10.1558    64.4511   723.1266 </r>
       <r>    10.3084    50.0721   730.7657 </r>
       <r>    10.4609    59.1184   739.7849 </r>
       <r>    10.6135    56.0294   748.3328 </r>
       <r>    10.7661    43.9327   755.0353 </r>
       <r>    10.9186    59.4305   764.1021 </r>
       <r>    11.0712    25.5344   767.9977 </r>
       <r>    11.2237     0.0152   768.0000 </r>
       <r>    11.3763     0.0000   768.0000 </r>
       <r>    11.5289     0.0000   768.0000 </r>
       <r>    11.6814     0.0000   768.0000 </r>
       <r>    11.8340     0.0000   768.0000 </r>
       <r>    11.9866     0.0000   768.0000 </r>
       <r>    12.1391     0.0000   768.0000 </r>
       <r>    12.2917     0.0000   768.0000 </r>
       <r>    12.4442     0.0000   768.0000 </r>
       <r>    12.5968     0.0000   768.0000 </r>
       <r>    12.7494     0.0000   768.0000 </r>
       <r>    12.9019     0.0000   768.0000 </r>
       <r>    13.0545     0.0000   768.0000 </r>
      </set>
     </set>
    </array>
   </total>
  </dos>
 </calculation>
 <structure name="finalpos" >
  <crystal>
   <varray name="basis" >
    <v>      11.24956320      -0.00319698       0.00000000 </v>
    <v>      -0.00320313      11.31618108       0.00000000 </v>
    <v>       0.00000000       0.00000000      15.79715822 </v>
   </varray>
   <i name="volume">   2011.01116234 </i>
   <varray name="rec_basis" >
    <v>       0.08889235       0.00002516       0.00000000 </v>
    <v>       0.00002511       0.08836904       0.00000000 </v>
    <v>       0.00000000       0.00000000       0.06330252 </v>
   </varray>
  </crystal>
  <varray name="positions" >
   <v>       0.00051938       0.25613141       0.11439007 </v>
   <v>       0.99824396       0.25039988       0.62836215 </v>
   <v>       0.00182199       0.73692374       0.11836584 </v>
   <v>       0.99786535       0.74963735       0.62763465 </v>
   <v>       0.49911771       0.23963312       0.11339654 </v>
   <v>       0.49794844       0.24887523       0.63033369 </v>
   <v>       0.49492731       0.74609577       0.11039026 </v>
   <v>       0.49779505       0.75040214       0.63016803 </v>
   <v>       0.00051938       0.25613141       0.38560993 </v>
   <v>       0.99824396       0.25039988       0.87163785 </v>
   <v>       0.00182199       0.73692374       0.38163416 </v>
   <v>       0.99786535       0.74963735       0.87236535 </v>
   <v>       0.49911771       0.23963312       0.38660346 </v>
   <v>       0.49794844       0.24887523       0.86966631 </v>
   <v>       0.49492731       0.74609577       0.38960974 </v>
   <v>       0.49779505       0.75040214       0.86983197 </v>
   <v>       0.25006268       0.00036325       0.11170233 </v>
   <v>       0.24771000       0.00042810       0.63038787 </v>
   <v>       0.24161231       0.50984556       0.11332706 </v>
   <v>       0.24779560       0.50100884       0.62859342 </v>
   <v>       0.74893288       0.99904928       0.11638443 </v>
   <v>       0.74854729       0.00028667       0.62933758 </v>
   <v>       0.75807456       0.51073589       0.11791356 </v>
   <v>       0.74829195       0.50089215       0.62779727 </v>
   <v>       0.25006268       0.00036325       0.38829767 </v>
   <v>       0.24771000       0.00042810       0.86961213 </v>
   <v>       0.24161231       0.50984556       0.38667294 </v>
   <v>       0.24779560       0.50100884       0.87140658 </v>
   <v>       0.74893288       0.99904928       0.38361557 </v>
   <v>       0.74854729       0.00028667       0.87066242 </v>
   <v>       0.75807456       0.51073589       0.38208644 </v>
   <v>       0.74829195       0.50089215       0.87220273 </v>
   <v>       0.99800164       0.00120827      -0.00001462 </v>
   <v>       0.99800164       0.00120827       0.50001462 </v>
   <v>       0.24766081       0.25015885       0.00038644 </v>
   <v>       0.74916950       0.25064542       0.00175732 </v>
   <v>       0.49866019      -0.00003686       0.50306898 </v>
   <v>       0.49820184       0.49897901       0.00022973 </v>
   <v>       0.99769104       0.49931560       0.75000000 </v>
   <v>       0.24665925       0.74915692       0.50032269 </v>
   <v>       0.49866019      -0.00003686       0.99693102 </v>
   <v>       0.74691407       0.75285508       0.75000000 </v>
   <v>       0.25002981       0.25024287       0.75000000 </v>
   <v>       0.74916950       0.25064542       0.49824268 </v>
   <v>       0.24854302       0.75355475       0.75000000 </v>
   <v>       0.24766081       0.25015885       0.49961356 </v>
   <v>       0.74656187       0.25088141       0.75000000 </v>
   <v>       0.24665925       0.74915692      -0.00032269 </v>
   <v>       0.74946135       0.74905846       0.49799650 </v>
   <v>       0.00748424       0.50814034       0.25000000 </v>
   <v>       0.74946135       0.74905846       0.00200350 </v>
   <v>       0.49820184       0.49897901       0.49977027 </v>
   <v>       0.49877456       0.00003153       0.75000000 </v>
   <v>       0.50593983       0.46739156       0.25000000 </v>
   <v>       0.49830801       0.49828166       0.75000000 </v>
   <v>       0.77201099       0.76076257       0.25000000 </v>
   <v>       0.99740546       0.99904276       0.75000000 </v>
   <v>       0.24612987       0.76545749       0.25000000 </v>
   <v>       0.99831954       0.49951793       0.99802713 </v>
   <v>       0.25949132       0.27998877       0.25000000 </v>
   <v>       0.01526140       0.97625825       0.25000000 </v>
   <v>       0.99831954       0.49951793       0.50197287 </v>
   <v>       0.50868986       0.95416288       0.25000000 </v>
   <v>       0.76480286       0.28438927       0.25000000 </v>
   <v>       0.99589751       0.03275441       0.13883855 </v>
   <v>       0.99535657       0.99344084       0.62049958 </v>
   <v>       0.00406872       0.50459819       0.12545222 </v>
   <v>       0.99496524       0.49332079       0.62531094 </v>
   <v>       0.48685599       0.01716454       0.13968552 </v>
   <v>       0.50018580       0.99913627       0.62290571 </v>
   <v>       0.48216123       0.52784220       0.14057202 </v>
   <v>       0.49872134       0.48656457       0.61972602 </v>
   <v>       0.99589751       0.03275441       0.36116145 </v>
   <v>       0.99535657       0.99344084       0.87950042 </v>
   <v>       0.00406872       0.50459819       0.37454778 </v>
   <v>       0.99496524       0.49332079       0.87468906 </v>
   <v>       0.48685599       0.01716454       0.36031448 </v>
   <v>       0.50018580       0.99913627       0.87709429 </v>
   <v>       0.48216123       0.52784220       0.35942798 </v>
   <v>       0.49872134       0.48656457       0.88027398 </v>
   <v>       0.23883723       0.22207685       0.36165683 </v>
   <v>       0.25251589       0.25495914       0.87771621 </v>
   <v>       0.25600345       0.74066007       0.37400693 </v>
   <v>       0.24521110       0.75891645       0.87596955 </v>
   <v>       0.74450348       0.22164436       0.35947543 </v>
   <v>       0.74384354       0.25574676       0.87909828 </v>
   <v>       0.73524113       0.73726766       0.36942838 </v>
   <v>       0.74678413       0.75628231       0.87796685 </v>
   <v>       0.23883723       0.22207685       0.13834317 </v>
   <v>       0.25251589       0.25495914       0.62228379 </v>
   <v>       0.25600345       0.74066007       0.12599307 </v>
   <v>       0.24521110       0.75891645       0.62403045 </v>
   <v>       0.74450348       0.22164436       0.14052457 </v>
   <v>       0.74384354       0.25574676       0.62090172 </v>
   <v>       0.73524113       0.73726766       0.13057162 </v>
   <v>       0.74678413       0.75628231       0.62203315 </v>
   <v>       0.16867271       0.41672123       0.25000000 </v>
   <v>       0.42558731       0.31791297       0.25000000 </v>
   <v>       0.66715348       0.42106046       0.25000000 </v>
   <v>       0.92174184       0.34432356       0.25000000 </v>
   <v>       0.11321069       0.65001540       0.25000000 </v>
   <v>       0.86226068       0.60483324       0.25000000 </v>
   <v>       0.17380518       0.91865769       0.25000000 </v>
   <v>       0.41907085       0.81091467       0.25000000 </v>
   <v>       0.67059681       0.91107031       0.25000000 </v>
   <v>       0.91476806       0.84673570       0.25000000 </v>
   <v>       0.12863349       0.11934978       0.50280375 </v>
   <v>       0.37790381       0.12939608       0.49970034 </v>
   <v>       0.62717844       0.12033511       0.49748895 </v>
   <v>       0.87698003       0.13004731       0.50054579 </v>
   <v>       0.12355780       0.36843332       0.49563732 </v>
   <v>       0.36992884       0.37658007       0.48446430 </v>
   <v>       0.61968408       0.37181839       0.48325145 </v>
   <v>       0.86647129       0.37534442       0.49069408 </v>
   <v>       0.12835827       0.62327706       0.50423496 </v>
   <v>       0.37711604       0.62801549       0.50603940 </v>
   <v>       0.62585589       0.61925304       0.50050283 </v>
   <v>       0.87568909       0.63154942       0.50009288 </v>
   <v>       0.11759128       0.87264835       0.48823660 </v>
   <v>       0.37065105       0.87997210       0.49717625 </v>
   <v>       0.61889830       0.87375463       0.49281452 </v>
   <v>       0.86999554       0.87912894       0.48755083 </v>
   <v>       0.11477663       0.13681594       0.75000000 </v>
   <v>       0.36307249       0.11703069       0.75000000 </v>
   <v>       0.61496373       0.13662740       0.75000000 </v>
   <v>       0.86209132       0.11756058       0.75000000 </v>
   <v>       0.13413586       0.38503419       0.75000000 </v>
   <v>       0.38225860       0.36428097       0.75000000 </v>
   <v>       0.63562339       0.38470744       0.75000000 </v>
   <v>       0.88309456       0.36295337       0.75000000 </v>
   <v>       0.11287898       0.63459269       0.75000000 </v>
   <v>       0.36268853       0.61708169       0.75000000 </v>
   <v>       0.61395654       0.63513499       0.75000000 </v>
   <v>       0.86216100       0.61510792       0.75000000 </v>
   <v>       0.13309443       0.88556874       0.75000000 </v>
   <v>       0.38270230       0.86522245       0.75000000 </v>
   <v>       0.63390105       0.88458408       0.75000000 </v>
   <v>       0.88160242       0.86334423       0.75000000 </v>
   <v>       0.12863349       0.11934978       0.99719625 </v>
   <v>       0.37790381       0.12939608       0.00029966 </v>
   <v>       0.62717844       0.12033511       0.00251105 </v>
   <v>       0.87698003       0.13004731       0.99945421 </v>
   <v>       0.12355780       0.36843332       0.00436268 </v>
   <v>       0.36992884       0.37658007       0.01553570 </v>
   <v>       0.61968408       0.37181839       0.01674855 </v>
   <v>       0.86647129       0.37534442       0.00930592 </v>
   <v>       0.12835827       0.62327706       0.99576504 </v>
   <v>       0.37711604       0.62801549       0.99396060 </v>
   <v>       0.62585589       0.61925304       0.99949717 </v>
   <v>       0.87568909       0.63154942       0.99990712 </v>
   <v>       0.11759128       0.87264835       0.01176340 </v>
   <v>       0.37065105       0.87997210       0.00282375 </v>
   <v>       0.61889830       0.87375463       0.00718548 </v>
   <v>       0.86999554       0.87912894       0.01244917 </v>
  </varray>
 </structure>
</modeling>
