       N       E                     dE             d eps       ncg     rms          rms(c)
DAV:   1     0.123814403152E+05    0.12381E+05   -0.43302E+05  3080   0.135E+03
DAV:   2     0.825342074858E+03   -0.11556E+05   -0.10327E+05  3096   0.390E+02
DAV:   3    -0.127883817358E+04   -0.21042E+04   -0.20138E+04  3288   0.174E+02
DAV:   4    -0.145061234826E+04   -0.17177E+03   -0.16902E+03  4152   0.530E+01
DAV:   5    -0.146063827845E+04   -0.10026E+02   -0.99814E+01  5432   0.118E+01    0.176E+02
RMM:   6    -0.113087277321E+04    0.32977E+03   -0.17388E+03  3242   0.395E+01    0.169E+02
RMM:   7    -0.110801647947E+04    0.22856E+02   -0.73772E+01  3233   0.139E+01    0.883E+01
RMM:   8    -0.110879281311E+04   -0.77633E+00   -0.24824E+01  3406   0.532E+00    0.498E+01
RMM:   9    -0.111360019777E+04   -0.48074E+01   -0.12653E+01  3170   0.429E+00    0.176E+01
RMM:  10    -0.111413850007E+04   -0.53830E+00   -0.29311E+00  3426   0.200E+00    0.639E+00
RMM:  11    -0.111521806306E+04   -0.10796E+01   -0.12523E+00  3751   0.101E+00    0.461E+00
RMM:  12    -0.111594483423E+04   -0.72677E+00   -0.64614E-01  3354   0.756E-01    0.269E+00
RMM:  13    -0.111626233540E+04   -0.31750E+00   -0.32018E-01  3539   0.537E-01    0.146E+00
RMM:  14    -0.111633638879E+04   -0.74053E-01   -0.11923E-01  3636   0.308E-01    0.881E-01
RMM:  15    -0.111635289633E+04   -0.16508E-01   -0.50704E-02  3574   0.215E-01    0.506E-01
RMM:  16    -0.111635708421E+04   -0.41879E-02   -0.18270E-02  4149   0.109E-01    0.290E-01
RMM:  17    -0.111635729327E+04   -0.20907E-03   -0.46722E-03  3574   0.597E-02    0.102E-01
RMM:  18    -0.111635748913E+04   -0.19586E-03   -0.20662E-03  3317   0.304E-02    0.590E-02
RMM:  19    -0.111635760122E+04   -0.11209E-03   -0.94565E-04  2609   0.215E-02    0.231E-02
RMM:  20    -0.111635766158E+04   -0.60358E-04   -0.53536E-04  2388   0.148E-02
   1 F= -.11163577E+04 E0= -.11163577E+04  d E =-.111636E+04  mag=    40.0003
       N       E                     dE             d eps       ncg     rms          rms(c)
DAV:   1    -0.106346123729E+04    0.52896E+02   -0.12758E+03  3552   0.372E+01    0.324E+01
RMM:   2    -0.111941226558E+04   -0.55951E+02   -0.93071E+01  3238   0.115E+01    0.546E+01
RMM:   3    -0.111998957146E+04   -0.57731E+00   -0.52271E+00  3248   0.364E+00    0.174E+01
RMM:   4    -0.111980101795E+04    0.18855E+00   -0.33873E+00  3262   0.212E+00    0.496E+00
RMM:   5    -0.111974763842E+04    0.53380E-01   -0.44804E-01  3360   0.765E-01    0.540E+00
RMM:   6    -0.111974120619E+04    0.64322E-02   -0.15837E-01  3593   0.417E-01    0.288E+00
RMM:   7    -0.111974814829E+04   -0.69421E-02   -0.55581E-02  3932   0.234E-01    0.187E+00
RMM:   8    -0.111974865427E+04   -0.50598E-03   -0.94658E-03  4506   0.105E-01    0.666E-01
RMM:   9    -0.111974759569E+04    0.10586E-02   -0.64503E-03  3809   0.726E-02    0.419E-01
RMM:  10    -0.111974757143E+04    0.24254E-04   -0.12718E-03  3410   0.383E-02    0.160E-01
RMM:  11    -0.111974757624E+04   -0.48023E-05   -0.45327E-04  2685   0.185E-02
   2 F= -.11197476E+04 E0= -.11197476E+04  d E =-.338991E+01  mag=    40.0000
       N       E                     dE             d eps       ncg     rms          rms(c)
DAV:   1    -0.111974452838E+04    0.30431E-02   -0.41834E-01  3480   0.651E-01    0.591E-01
RMM:   2    -0.111974815692E+04   -0.36285E-02   -0.10864E-02  3194   0.132E-01    0.336E-01
RMM:   3    -0.111974880514E+04   -0.64822E-03   -0.68714E-04  2754   0.453E-02    0.190E-01
RMM:   4    -0.111974875077E+04    0.54376E-04   -0.31147E-04  2265   0.211E-02    0.101E-01
RMM:   5    -0.111974876186E+04   -0.11093E-04   -0.15093E-04  2016   0.165E-02    0.726E-02
RMM:   6    -0.111974876419E+04   -0.23288E-05   -0.56447E-05  1869   0.128E-02    0.622E-02
RMM:   7    -0.111974876846E+04   -0.42700E-05   -0.21610E-05  1775   0.646E-03    0.140E-02
RMM:   8    -0.111974877409E+04   -0.56252E-05   -0.12703E-05  1750   0.568E-03
   3 F= -.11197488E+04 E0= -.11197488E+04  d E =-.339111E+01  mag=    40.0000
       N       E                     dE             d eps       ncg     rms          rms(c)
DAV:   1    -0.112065868878E+04   -0.90992E+00   -0.37005E+02  3144   0.226E+01    0.120E+01
RMM:   2    -0.112082797106E+04   -0.16928E+00   -0.12411E+01  3134   0.458E+00    0.816E+00
RMM:   3    -0.112066357734E+04    0.16439E+00   -0.87970E-01  3243   0.159E+00    0.457E+00
RMM:   4    -0.112057254986E+04    0.91027E-01   -0.33993E-01  3310   0.670E-01    0.368E+00
RMM:   5    -0.112055069545E+04    0.21854E-01   -0.79009E-02  3371   0.340E-01    0.180E+00
RMM:   6    -0.112055311922E+04   -0.24238E-02   -0.36136E-02  3958   0.195E-01    0.943E-01
RMM:   7    -0.112055295440E+04    0.16482E-03   -0.10290E-02  4066   0.108E-01    0.597E-01
RMM:   8    -0.112055344771E+04   -0.49331E-03   -0.35839E-03  4397   0.524E-02    0.260E-01
RMM:   9    -0.112055343460E+04    0.13108E-04   -0.11110E-03  3634   0.306E-02    0.797E-02
RMM:  10    -0.112055342274E+04    0.11858E-04   -0.39911E-04  2549   0.182E-02
   4 F= -.11205534E+04 E0= -.11205534E+04  d E =-.804649E+00  mag=    40.0000
       N       E                     dE             d eps       ncg     rms          rms(c)
DAV:   1    -0.112055745927E+04   -0.40247E-02   -0.14643E+00  3600   0.142E+00    0.769E-01
RMM:   2    -0.112055787584E+04   -0.41657E-03   -0.51643E-02  3143   0.289E-01    0.506E-01
RMM:   3    -0.112055710054E+04    0.77530E-03   -0.36218E-03  3247   0.102E-01    0.282E-01
RMM:   4    -0.112055677881E+04    0.32173E-03   -0.16125E-03  3325   0.441E-02    0.223E-01
RMM:   5    -0.112055671080E+04    0.68006E-04   -0.30104E-04  2204   0.242E-02    0.117E-01
RMM:   6    -0.112055671164E+04   -0.84064E-06   -0.14704E-04  1967   0.153E-02    0.593E-02
RMM:   7    -0.112055670627E+04    0.53771E-05   -0.68031E-05  1832   0.127E-02    0.522E-02
RMM:   8    -0.112055670140E+04    0.48637E-05   -0.38577E-05  1811   0.852E-03
   5 F= -.11205567E+04 E0= -.11205567E+04  d E =-.807927E+00  mag=    40.0000
       N       E                     dE             d eps       ncg     rms          rms(c)
DAV:   1    -0.112087399505E+04   -0.31729E+00   -0.48908E+01  3104   0.840E+00    0.470E+00
RMM:   2    -0.112075243996E+04    0.12156E+00   -0.17885E+00  3105   0.166E+00    0.360E+00
RMM:   3    -0.112068318351E+04    0.69256E-01   -0.12475E-01  3174   0.633E-01    0.178E+00
RMM:   4    -0.112065709010E+04    0.26093E-01   -0.61394E-02  3201   0.288E-01    0.120E+00
RMM:   5    -0.112065455006E+04    0.25400E-02   -0.14420E-02  3442   0.154E-01    0.657E-01
RMM:   6    -0.112065388665E+04    0.66341E-03   -0.56225E-03  4124   0.730E-02    0.312E-01
RMM:   7    -0.112065405226E+04   -0.16561E-03   -0.18001E-03  3720   0.399E-02    0.190E-01
RMM:   8    -0.112065417424E+04   -0.12198E-03   -0.49722E-04  2916   0.215E-02    0.461E-02
RMM:   9    -0.112065417872E+04   -0.44818E-05   -0.17011E-04  2125   0.133E-02
   6 F= -.11206542E+04 E0= -.11206542E+04  d E =-.974773E-01  mag=    40.0000
       N       E                     dE             d eps       ncg     rms          rms(c)
DAV:   1    -0.112066393993E+04   -0.97657E-02   -0.13133E+00  3296   0.138E+00    0.777E-01
RMM:   2    -0.112066052951E+04    0.34104E-02   -0.46885E-02  3119   0.270E-01    0.608E-01
RMM:   3    -0.112065869651E+04    0.18330E-02   -0.33160E-03  3198   0.101E-01    0.301E-01
RMM:   4    -0.112065794833E+04    0.74818E-03   -0.15829E-03  3120   0.469E-02    0.203E-01
RMM:   5    -0.112065784485E+04    0.10347E-03   -0.32723E-04  2171   0.265E-02    0.111E-01
RMM:   6    -0.112065780317E+04    0.41689E-04   -0.14405E-04  1937   0.147E-02    0.488E-02
RMM:   7    -0.112065779708E+04    0.60888E-05   -0.56816E-05  1776   0.106E-02    0.273E-02
RMM:   8    -0.112065779139E+04    0.56875E-05   -0.28167E-05  1735   0.672E-03
   7 F= -.11206578E+04 E0= -.11206578E+04  d E =-.101090E+00  mag=    40.0000
       N       E                     dE             d eps       ncg     rms          rms(c)
DAV:   1    -0.112068040622E+04   -0.22609E-01   -0.13740E+01  3104   0.437E+00    0.136E+00
RMM:   2    -0.112070217137E+04   -0.21765E-01   -0.35639E-01  3117   0.788E-01    0.899E-01
RMM:   3    -0.112069951779E+04    0.26536E-02   -0.20472E-02  3206   0.262E-01    0.559E-01
RMM:   4    -0.112069714642E+04    0.23714E-02   -0.77996E-03  3311   0.997E-02    0.266E-01
RMM:   5    -0.112069677166E+04    0.37476E-03   -0.16171E-03  3269   0.499E-02    0.188E-01
RMM:   6    -0.112069676287E+04    0.87921E-05   -0.26469E-04  2325   0.186E-02    0.903E-02
RMM:   7    -0.112069677534E+04   -0.12474E-04   -0.10621E-04  1914   0.128E-02    0.552E-02
RMM:   8    -0.112069679372E+04   -0.18375E-04   -0.55551E-05  1839   0.104E-02
   8 F= -.11206968E+04 E0= -.11206968E+04  d E =-.390023E-01  mag=    40.0000
       N       E                     dE             d eps       ncg     rms          rms(c)
DAV:   1    -0.112069650840E+04    0.26694E-03   -0.58821E+00  3136   0.286E+00    0.892E-01
RMM:   2    -0.112070594862E+04   -0.94402E-02   -0.15309E-01  3123   0.516E-01    0.589E-01
RMM:   3    -0.112070485023E+04    0.10984E-02   -0.89242E-03  3225   0.170E-01    0.366E-01
RMM:   4    -0.112070386236E+04    0.98786E-03   -0.33730E-03  3326   0.649E-02    0.177E-01
RMM:   5    -0.112070370369E+04    0.15867E-03   -0.69690E-04  2845   0.326E-02    0.121E-01
RMM:   6    -0.112070370487E+04   -0.11752E-05   -0.11539E-04  1960   0.138E-02    0.603E-02
RMM:   7    -0.112070371454E+04   -0.96700E-05   -0.57240E-05  1844   0.102E-02    0.331E-02
RMM:   8    -0.112070372630E+04   -0.11762E-04   -0.33619E-05  1813   0.808E-03
   9 F= -.11207037E+04 E0= -.11207037E+04  d E =-.459349E-01  mag=    40.0000
       N       E                     dE             d eps       ncg     rms          rms(c)
DAV:   1    -0.112070162902E+04    0.20855E-02   -0.11199E+01  3200   0.389E+00    0.139E+00
RMM:   2    -0.112073062818E+04   -0.28999E-01   -0.30563E-01  3131   0.731E-01    0.110E+00
RMM:   3    -0.112073132474E+04   -0.69656E-03   -0.17478E-02  3354   0.220E-01    0.561E-01
RMM:   4    -0.112073017207E+04    0.11527E-02   -0.37240E-03  3888   0.693E-02    0.325E-01
RMM:   5    -0.112072978779E+04    0.38428E-03   -0.19978E-03  3446   0.417E-02    0.106E-01
RMM:   6    -0.112072978296E+04    0.48340E-05   -0.21070E-04  2134   0.204E-02    0.532E-02
RMM:   7    -0.112072978241E+04    0.54637E-06   -0.98141E-05  1876   0.114E-02    0.349E-02
RMM:   8    -0.112072978079E+04    0.16258E-05   -0.64670E-05  1847   0.105E-02
  10 F= -.11207298E+04 E0= -.11207298E+04  d E =-.260545E-01  mag=    40.0000
       N       E                     dE             d eps       ncg     rms          rms(c)
DAV:   1    -0.112071217592E+04    0.17606E-01   -0.10201E+01  3168   0.371E+00    0.132E+00
RMM:   2    -0.112073871236E+04   -0.26536E-01   -0.27836E-01  3128   0.698E-01    0.104E+00
RMM:   3    -0.112073940020E+04   -0.68784E-03   -0.16249E-02  3374   0.211E-01    0.528E-01
RMM:   4    -0.112073835889E+04    0.10413E-02   -0.33278E-03  3845   0.656E-02    0.307E-01
RMM:   5    -0.112073799818E+04    0.36071E-03   -0.18066E-03  3419   0.399E-02    0.997E-02
RMM:   6    -0.112073799431E+04    0.38789E-05   -0.20357E-04  2125   0.194E-02    0.504E-02
RMM:   7    -0.112073799405E+04    0.25185E-06   -0.92640E-05  1869   0.113E-02    0.339E-02
RMM:   8    -0.112073799341E+04    0.64474E-06   -0.65172E-05  1835   0.104E-02
  11 F= -.11207380E+04 E0= -.11207380E+04  d E =-.342671E-01  mag=    40.0000
       N       E                     dE             d eps       ncg     rms          rms(c)
DAV:   1    -0.112074507561E+04   -0.70816E-02   -0.47613E+00  3120   0.257E+00    0.108E+00
RMM:   2    -0.112075360392E+04   -0.85283E-02   -0.11388E-01  3155   0.449E-01    0.685E-01
RMM:   3    -0.112075320615E+04    0.39777E-03   -0.67862E-03  3314   0.139E-01    0.397E-01
RMM:   4    -0.112075197479E+04    0.12314E-02   -0.25516E-03  3415   0.562E-02    0.186E-01
RMM:   5    -0.112075183622E+04    0.13856E-03   -0.57491E-04  2944   0.304E-02    0.665E-02
RMM:   6    -0.112075184962E+04   -0.13393E-04   -0.97486E-05  1869   0.132E-02    0.307E-02
RMM:   7    -0.112075186140E+04   -0.11784E-04   -0.46183E-05  1822   0.959E-03    0.138E-02
RMM:   8    -0.112075186643E+04   -0.50301E-05   -0.26913E-05  1763   0.697E-03
  12 F= -.11207519E+04 E0= -.11207519E+04  d E =-.138730E-01  mag=    40.0000
       N       E                     dE             d eps       ncg     rms          rms(c)
DAV:   1    -0.112074863972E+04    0.32217E-02   -0.64109E+00  3088   0.298E+00    0.125E+00
RMM:   2    -0.112076006828E+04   -0.11429E-01   -0.15292E-01  3150   0.521E-01    0.793E-01
RMM:   3    -0.112075954380E+04    0.52449E-03   -0.91056E-03  3303   0.162E-01    0.459E-01
RMM:   4    -0.112075789761E+04    0.16462E-02   -0.34443E-03  3393   0.654E-02    0.214E-01
RMM:   5    -0.112075772024E+04    0.17737E-03   -0.76052E-04  3224   0.344E-02    0.763E-02
RMM:   6    -0.112075773735E+04   -0.17106E-04   -0.12348E-04  1930   0.143E-02    0.360E-02
RMM:   7    -0.112075775223E+04   -0.14881E-04   -0.55433E-05  1847   0.102E-02    0.157E-02
RMM:   8    -0.112075775839E+04   -0.61652E-05   -0.34375E-05  1794   0.746E-03
  13 F= -.11207578E+04 E0= -.11207578E+04  d E =-.197650E-01  mag=    40.0000
       N       E                     dE             d eps       ncg     rms          rms(c)
DAV:   1    -0.112075827139E+04   -0.51917E-03   -0.31854E+00  3184   0.206E+00    0.504E-01
RMM:   2    -0.112076437140E+04   -0.61000E-02   -0.79362E-02  3143   0.373E-01    0.372E-01
RMM:   3    -0.112076408899E+04    0.28240E-03   -0.44559E-03  3288   0.110E-01    0.281E-01
RMM:   4    -0.112076375935E+04    0.32965E-03   -0.89061E-04  3193   0.333E-02    0.166E-01
RMM:   5    -0.112076362811E+04    0.13123E-03   -0.59389E-04  2811   0.262E-02    0.547E-02
RMM:   6    -0.112076362772E+04    0.39673E-06   -0.72887E-05  1825   0.137E-02    0.385E-02
RMM:   7    -0.112076363066E+04   -0.29421E-05   -0.35005E-05  1796   0.709E-03    0.163E-02
RMM:   8    -0.112076363161E+04   -0.95350E-06   -0.19953E-05  1724   0.645E-03
  14 F= -.11207636E+04 E0= -.11207636E+04  d E =-.587322E-02  mag=    40.0000
       N       E                     dE             d eps       ncg     rms          rms(c)
DAV:   1    -0.112076291308E+04    0.71758E-03   -0.97638E-01  3152   0.114E+00    0.275E-01
RMM:   2    -0.112076479427E+04   -0.18812E-02   -0.24428E-02  3148   0.207E-01    0.203E-01
RMM:   3    -0.112076470051E+04    0.93760E-04   -0.13627E-03  3111   0.603E-02    0.156E-01
RMM:   4    -0.112076459772E+04    0.10279E-03   -0.24206E-04  2114   0.190E-02    0.935E-02
RMM:   5    -0.112076455549E+04    0.42227E-04   -0.17238E-04  1888   0.159E-02    0.284E-02
RMM:   6    -0.112076455855E+04   -0.30572E-05   -0.35401E-05  1771   0.103E-02    0.287E-02
RMM:   7    -0.112076456031E+04   -0.17610E-05   -0.19054E-05  1696   0.532E-03    0.111E-02
RMM:   8    -0.112076456079E+04   -0.47809E-06   -0.10324E-05  1611   0.537E-03
  15 F= -.11207646E+04 E0= -.11207646E+04  d E =-.680239E-02  mag=    40.0000
       N       E                     dE             d eps       ncg     rms          rms(c)
DAV:   1    -0.112076147139E+04    0.30889E-02   -0.34927E+00  3104   0.214E+00    0.525E-01
RMM:   2    -0.112077016013E+04   -0.86887E-02   -0.82694E-02  3145   0.364E-01    0.337E-01
RMM:   3    -0.112077037187E+04   -0.21173E-03   -0.41281E-03  3117   0.115E-01    0.199E-01
RMM:   4    -0.112077016820E+04    0.20367E-03   -0.10048E-03  3193   0.355E-02    0.912E-02
RMM:   5    -0.112077014760E+04    0.20601E-04   -0.28743E-04  2288   0.200E-02    0.717E-02
RMM:   6    -0.112077015265E+04   -0.50518E-05   -0.69725E-05  1796   0.123E-02    0.301E-02
RMM:   7    -0.112077015667E+04   -0.40216E-05   -0.35218E-05  1774   0.739E-03    0.152E-02
RMM:   8    -0.112077015954E+04   -0.28628E-05   -0.22068E-05  1713   0.675E-03
  16 F= -.11207702E+04 E0= -.11207702E+04  d E =-.559875E-02  mag=    40.0000
