<?xml version="1.0" encoding="ISO-8859-1"?>
<modeling>
 <generator>
  <i name="program" type="string">vasp </i>
  <i name="version" type="string">5.4.1  </i>
  <i name="subversion" type="string">05Feb16 (build Jan 25 2017 20:16:33) complex                          parallel </i>
  <i name="platform" type="string">BWXE6 </i>
  <i name="date" type="string">2019 08 10 </i>
  <i name="time" type="string">23:12:56 </i>
 </generator>
 <incar>
  <i type="string" name="SYSTEM"> STF</i>
  <i type="string" name="PREC">normal</i>
  <i type="string" name="ALGO"> Fast</i>
  <i type="int" name="ISPIN">     2</i>
  <i type="int" name="NELM">    40</i>
  <i type="int" name="NELMIN">     8</i>
  <i type="int" name="IBRION">     2</i>
  <i name="EDIFF">      0.00010000</i>
  <i name="EDIFFG">     -0.03000000</i>
  <i type="int" name="NSW">    30</i>
  <i type="int" name="ISIF">     3</i>
  <i name="ENCUT">    520.00000000</i>
  <i type="int" name="NBANDS">   768</i>
  <v name="MAGMOM">      0.60000000      0.60000000      0.60000000      0.60000000      0.60000000      0.60000000      0.60000000      0.60000000      0.60000000      0.60000000      0.60000000      0.60000000      0.60000000      0.60000000      0.60000000      0.60000000      0.60000000      0.60000000      0.60000000      0.60000000
      0.60000000      0.60000000      0.60000000      0.60000000      0.60000000      0.60000000      0.60000000      0.60000000      0.60000000      0.60000000      0.60000000      0.60000000      0.60000000      0.60000000      0.60000000      0.60000000      0.60000000      0.60000000      0.60000000      0.60000000
      0.60000000      0.60000000      0.60000000      0.60000000      0.60000000      0.60000000      0.60000000      0.60000000      0.60000000      0.60000000      0.60000000      0.60000000      0.60000000      0.60000000      0.60000000      0.60000000      5.00000000      5.00000000      5.00000000      5.00000000
      5.00000000      5.00000000      5.00000000      5.00000000      0.60000000      0.60000000      0.60000000      0.60000000      0.60000000      0.60000000      0.60000000      0.60000000      0.60000000      0.60000000      0.60000000      0.60000000      0.60000000      0.60000000      0.60000000      0.60000000
      0.60000000      0.60000000      0.60000000      0.60000000      0.60000000      0.60000000      0.60000000      0.60000000      0.60000000      0.60000000      0.60000000      0.60000000      0.60000000      0.60000000      0.60000000      0.60000000      0.60000000      0.60000000      0.60000000      0.60000000
      0.60000000      0.60000000      0.60000000      0.60000000      0.60000000      0.60000000      0.60000000      0.60000000      0.60000000      0.60000000      0.60000000      0.60000000      0.60000000      0.60000000      0.60000000      0.60000000      0.60000000      0.60000000      0.60000000      0.60000000
      0.60000000      0.60000000      0.60000000      0.60000000      0.60000000      0.60000000      0.60000000      0.60000000      0.60000000      0.60000000      0.60000000      0.60000000      0.60000000      0.60000000      0.60000000      0.60000000      0.60000000      0.60000000      0.60000000      0.60000000
      0.60000000      0.60000000      0.60000000      0.60000000      0.60000000      0.60000000      0.60000000      0.60000000      0.60000000      0.60000000      0.60000000      0.60000000      0.60000000      0.60000000      0.60000000      0.60000000</v>
  <i type="string" name="LREAL"> Auto</i>
  <i type="int" name="ISMEAR">     0</i>
  <i name="SIGMA">      0.05000000</i>
  <i type="int" name="LMAXMIX">     4</i>
  <v type="int" name="KPOINT_BSE">    -1     0     0     0</v>
  <i type="int" name="NELM">    40</i>
  <i type="logical" name="LDAU"> T  </i>
  <v type="int" name="LDAUTYPE">     2</v>
  <v type="int" name="LDAUL">     0     2     2     0</v>
  <v name="LDAUU">      0.00000000      3.00000000      5.00000000      0.00000000</v>
  <v name="LDAUJ">      0.00000000      0.00000000      0.00000000      0.00000000</v>
  <i type="int" name="LDAUPRINT">     1</i>
 </incar>
 <kpoints>
  <generation param="Monkhorst-Pack">
   <v type="int" name="divisions">       2        2        2 </v>
   <v name="usershift">      0.00000000       0.00000000       0.00000000 </v>
   <v name="genvec1">      0.50000000       0.00000000       0.00000000 </v>
   <v name="genvec2">      0.00000000       0.50000000       0.00000000 </v>
   <v name="genvec3">      0.00000000       0.00000000       0.50000000 </v>
   <v name="shift">      0.50000000       0.50000000       0.50000000 </v>
  </generation>
  <varray name="kpointlist" >
   <v>       0.25000000       0.25000000       0.25000000 </v>
  </varray>
  <varray name="weights" >
   <v>       1.00000000 </v>
  </varray>
 </kpoints>
 <parameters>
  <separator name="general" >
   <i type="string" name="SYSTEM">STF</i>
   <i type="logical" name="LCOMPAT"> F  </i>
  </separator>
  <separator name="electronic" >
   <i type="string" name="PREC">normal</i>
   <i name="ENMAX">    520.00000000</i>
   <i name="ENAUG">    605.39200000</i>
   <i name="EDIFF">      0.00010000</i>
   <i type="int" name="IALGO">    68</i>
   <i type="int" name="IWAVPR">    11</i>
   <i type="int" name="NBANDS">   768</i>
   <i name="NELECT">   1032.00000000</i>
   <i type="int" name="TURBO">     0</i>
   <i type="int" name="IRESTART">     0</i>
   <i type="int" name="NREBOOT">     0</i>
   <i type="int" name="NMIN">     0</i>
   <i name="EREF">      0.00000000</i>
   <separator name="electronic smearing" >
    <i type="int" name="ISMEAR">     0</i>
    <i name="SIGMA">      0.05000000</i>
    <i name="KSPACING">      0.50000000</i>
    <i type="logical" name="KGAMMA"> T  </i>
   </separator>
   <separator name="electronic projectors" >
    <i type="logical" name="LREAL"> T  </i>
    <v name="ROPT">     -0.00050000     -0.00050000     -0.00050000     -0.00050000</v>
    <i type="int" name="LMAXPAW">  -100</i>
    <i type="int" name="LMAXMIX">     4</i>
    <i type="logical" name="NLSPLINE"> F  </i>
   </separator>
   <separator name="electronic startup" >
    <i type="int" name="ISTART">     0</i>
    <i type="int" name="ICHARG">     2</i>
    <i type="int" name="INIWAV">     1</i>
   </separator>
   <separator name="electronic spin" >
    <i type="int" name="ISPIN">     2</i>
    <i type="logical" name="LNONCOLLINEAR"> F  </i>
    <v name="MAGMOM">      0.60000000      0.60000000      0.60000000      0.60000000      0.60000000      0.60000000      0.60000000      0.60000000      0.60000000      0.60000000      0.60000000      0.60000000      0.60000000      0.60000000      0.60000000      0.60000000      0.60000000      0.60000000      0.60000000      0.60000000
      0.60000000      0.60000000      0.60000000      0.60000000      0.60000000      0.60000000      0.60000000      0.60000000      0.60000000      0.60000000      0.60000000      0.60000000      0.60000000      0.60000000      0.60000000      0.60000000      0.60000000      0.60000000      0.60000000      0.60000000
      0.60000000      0.60000000      0.60000000      0.60000000      0.60000000      0.60000000      0.60000000      0.60000000      0.60000000      0.60000000      0.60000000      0.60000000      0.60000000      0.60000000      0.60000000      0.60000000      5.00000000      5.00000000      5.00000000      5.00000000
      5.00000000      5.00000000      5.00000000      5.00000000      0.60000000      0.60000000      0.60000000      0.60000000      0.60000000      0.60000000      0.60000000      0.60000000      0.60000000      0.60000000      0.60000000      0.60000000      0.60000000      0.60000000      0.60000000      0.60000000
      0.60000000      0.60000000      0.60000000      0.60000000      0.60000000      0.60000000      0.60000000      0.60000000      0.60000000      0.60000000      0.60000000      0.60000000      0.60000000      0.60000000      0.60000000      0.60000000      0.60000000      0.60000000      0.60000000      0.60000000
      0.60000000      0.60000000      0.60000000      0.60000000      0.60000000      0.60000000      0.60000000      0.60000000      0.60000000      0.60000000      0.60000000      0.60000000      0.60000000      0.60000000      0.60000000      0.60000000      0.60000000      0.60000000      0.60000000      0.60000000
      0.60000000      0.60000000      0.60000000      0.60000000      0.60000000      0.60000000      0.60000000      0.60000000      0.60000000      0.60000000      0.60000000      0.60000000      0.60000000      0.60000000      0.60000000      0.60000000      0.60000000      0.60000000      0.60000000      0.60000000
      0.60000000      0.60000000      0.60000000      0.60000000      0.60000000      0.60000000      0.60000000      0.60000000      0.60000000      0.60000000      0.60000000      0.60000000      0.60000000      0.60000000      0.60000000      0.60000000</v>
    <i name="NUPDOWN">     -1.00000000</i>
    <i type="logical" name="LSORBIT"> F  </i>
    <v name="SAXIS">      0.00000000      0.00000000      1.00000000</v>
    <i type="logical" name="LSPIRAL"> F  </i>
    <v name="QSPIRAL">      0.00000000      0.00000000      0.00000000</v>
    <i type="logical" name="LZEROZ"> F  </i>
   </separator>
   <separator name="electronic exchange-correlation" >
    <i type="logical" name="LASPH"> F  </i>
    <i type="logical" name="LMETAGGA"> F  </i>
   </separator>
   <separator name="electronic convergence" >
    <i type="int" name="NELM">    40</i>
    <i type="int" name="NELMDL">    -5</i>
    <i type="int" name="NELMIN">     8</i>
    <i name="ENINI">    520.00000000</i>
    <separator name="electronic convergence detail" >
     <i type="logical" name="LDIAG"> T  </i>
     <i type="logical" name="LSUBROT"> F  </i>
     <i name="WEIMIN">      0.00100000</i>
     <i name="EBREAK">      0.00000003</i>
     <i name="DEPER">      0.30000000</i>
     <i type="int" name="NRMM">     4</i>
     <i name="TIME">      0.40000000</i>
    </separator>
   </separator>
   <separator name="electronic mixer" >
    <i name="AMIX">      0.40000000</i>
    <i name="BMIX">      1.00000000</i>
    <i name="AMIN">      0.10000000</i>
    <i name="AMIX_MAG">      1.60000000</i>
    <i name="BMIX_MAG">      1.00000000</i>
    <separator name="electronic mixer details" >
     <i type="int" name="IMIX">     4</i>
     <i type="logical" name="MIXFIRST"> F  </i>
     <i type="int" name="MAXMIX">   -45</i>
     <i name="WC">    100.00000000</i>
     <i type="int" name="INIMIX">     1</i>
     <i type="int" name="MIXPRE">     1</i>
     <i type="int" name="MREMOVE">     5</i>
    </separator>
   </separator>
   <separator name="electronic dipolcorrection" >
    <i type="logical" name="LDIPOL"> F  </i>
    <i type="logical" name="LMONO"> F  </i>
    <i type="int" name="IDIPOL">     0</i>
    <i name="EPSILON">      1.00000000</i>
    <v name="DIPOL">   -100.00000000   -100.00000000   -100.00000000</v>
    <i name="EFIELD">      0.00000000</i>
   </separator>
  </separator>
  <separator name="grids" >
   <i type="int" name="NGX">    64</i>
   <i type="int" name="NGY">    64</i>
   <i type="int" name="NGZ">    90</i>
   <i type="int" name="NGXF">   128</i>
   <i type="int" name="NGYF">   128</i>
   <i type="int" name="NGZF">   180</i>
   <i type="logical" name="ADDGRID"> F  </i>
  </separator>
  <separator name="ionic" >
   <i type="int" name="NSW">    30</i>
   <i type="int" name="IBRION">     2</i>
   <i type="int" name="ISIF">     3</i>
   <i name="PSTRESS">      0.00000000</i>
   <i name="EDIFFG">     -0.03000000</i>
   <i type="int" name="NFREE">     1</i>
   <i name="POTIM">      0.50000000</i>
   <i name="SMASS">     -3.00000000</i>
   <i name="SCALEE">      1.00000000</i>
  </separator>
  <separator name="ionic md" >
   <i name="TEBEG">      0.00010000</i>
   <i name="TEEND">      0.00010000</i>
   <i type="int" name="NBLOCK">     1</i>
   <i type="int" name="KBLOCK">    30</i>
   <i type="int" name="NPACO">   256</i>
   <i name="APACO">     16.00000000</i>
  </separator>
  <separator name="symmetry" >
   <i type="int" name="ISYM">     2</i>
   <i name="SYMPREC">      0.00001000</i>
  </separator>
  <separator name="dos" >
   <i type="logical" name="LORBIT"> F  </i>
   <v name="RWIGS">     -1.00000000     -1.00000000     -1.00000000     -1.00000000</v>
   <i type="int" name="NEDOS">   301</i>
   <i name="EMIN">     10.00000000</i>
   <i name="EMAX">    -10.00000000</i>
   <i name="EFERMI">      0.00000000</i>
  </separator>
  <separator name="writing" >
   <i type="int" name="NWRITE">     2</i>
   <i type="logical" name="LWAVE"> T  </i>
   <i type="logical" name="LCHARG"> T  </i>
   <i type="logical" name="LPARD"> F  </i>
   <i type="logical" name="LVTOT"> F  </i>
   <i type="logical" name="LVHAR"> F  </i>
   <i type="logical" name="LELF"> F  </i>
   <i type="logical" name="LOPTICS"> F  </i>
   <v name="STM">      0.00000000      0.00000000      0.00000000      0.00000000      0.00000000      0.00000000      0.00000000</v>
  </separator>
  <separator name="performance" >
   <i type="int" name="NPAR">     2</i>
   <i type="int" name="NSIM">     4</i>
   <i type="int" name="NBLK">    -1</i>
   <i type="logical" name="LPLANE"> T  </i>
   <i type="logical" name="LSCALAPACK"> T  </i>
   <i type="logical" name="LSCAAWARE"> F  </i>
   <i type="logical" name="LSCALU"> F  </i>
   <i type="logical" name="LASYNC"> F  </i>
   <i type="logical" name="LORBITALREAL"> F  </i>
  </separator>
  <separator name="miscellaneous" >
   <i type="int" name="IDIOT">     3</i>
   <i type="logical" name="LMUSIC"> F  </i>
   <v name="POMASS">     87.62000000     47.88000000     55.84700000     16.00000000</v>
   <v name="DARWINR">      0.00000000      0.00000000      0.00000000      0.00000000</v>
   <v name="DARWINV">      1.00000000      1.00000000      1.00000000      1.00000000</v>
   <i type="logical" name="LCORR"> T  </i>
  </separator>
  <i type="logical" name="GGA_COMPAT"> T  </i>
  <i type="logical" name="LBERRY"> F  </i>
  <i type="int" name="ICORELEVEL">     0</i>
  <i type="logical" name="LDAU"> T  </i>
  <v type="int" name="LDAUTYPE">     2</v>
  <v type="int" name="LDAUL">     0</v>
  <v name="LDAUU">      0.00000000</v>
  <v name="LDAUJ">      0.00000000</v>
  <i type="int" name="LDAUPRINT">     1</i>
  <i type="int" name="I_CONSTRAINED_M">     0</i>
  <separator name="electronic exchange-correlation" >
   <i type="string" name="GGA">--</i>
   <i type="int" name="VOSKOWN">     0</i>
   <i type="logical" name="LHFCALC"> F  </i>
   <i type="string" name="PRECFOCK"></i>
   <i type="logical" name="LSYMGRAD"> F  </i>
   <i type="logical" name="LHFONE"> F  </i>
   <i type="logical" name="LRHFCALC"> F  </i>
   <i type="logical" name="LTHOMAS"> F  </i>
   <i type="logical" name="LMODELHF"> F  </i>
   <i name="ENCUT4O">     -1.00000000</i>
   <i type="int" name="EXXOEP">     0</i>
   <i type="int" name="FOURORBIT">     0</i>
   <i name="AEXX">      0.00000000</i>
   <i name="HFALPHA">      0.00000000</i>
   <i name="MCALPHA">      0.00000000</i>
   <i name="ALDAX">      1.00000000</i>
   <i name="AGGAX">      1.00000000</i>
   <i name="ALDAC">      1.00000000</i>
   <i name="AGGAC">      1.00000000</i>
   <i type="int" name="NKREDX">     1</i>
   <i type="int" name="NKREDY">     1</i>
   <i type="int" name="NKREDZ">     1</i>
   <i type="logical" name="SHIFTRED"> F  </i>
   <i type="logical" name="ODDONLY"> F  </i>
   <i type="logical" name="EVENONLY"> F  </i>
   <i type="int" name="LMAXFOCK">     0</i>
   <i type="int" name="NMAXFOCKAE">     0</i>
   <i type="logical" name="LFOCKAEDFT"> F  </i>
   <i name="HFSCREEN">      0.00000000</i>
   <i name="HFSCREENC">      0.00000000</i>
   <i type="int" name="NBANDSGWLOW">     0</i>
  </separator>
  <separator name="vdW DFT" >
   <i type="logical" name="LUSE_VDW"> F  </i>
   <i name="Zab_VDW">     -0.84910000</i>
   <i name="PARAM1">      0.12340000</i>
   <i name="PARAM2">      1.00000000</i>
   <i name="PARAM3">      0.00000000</i>
  </separator>
  <separator name="model GW" >
   <i type="int" name="MODEL_GW">     0</i>
   <i name="MODEL_EPS0">      7.70980583</i>
   <i name="MODEL_ALPHA">      1.00000000</i>
  </separator>
  <separator name="linear response parameters" >
   <i type="logical" name="LEPSILON"> F  </i>
   <i type="logical" name="LRPA"> F  </i>
   <i type="logical" name="LNABLA"> F  </i>
   <i type="logical" name="LVEL"> F  </i>
   <i type="int" name="KINTER">     0</i>
   <i name="CSHIFT">      0.10000000</i>
   <i name="OMEGAMAX">     -1.00000000</i>
   <i name="DEG_THRESHOLD">      0.00200000</i>
  </separator>
  <separator name="orbital magnetization" >
   <i type="logical" name="NUCIND"> F  </i>
   <v name="MAGPOS">      0.00000000      0.00000000      0.00000000</v>
   <i type="logical" name="LNICSALL"> T  </i>
   <i type="logical" name="ORBITALMAG"> F  </i>
   <i type="logical" name="LMAGBLOCH"> F  </i>
   <i type="logical" name="LCHIMAG"> F  </i>
   <i type="logical" name="LGAUGE"> T  </i>
   <i type="int" name="MAGATOM">     0</i>
   <v name="MAGDIPOL">      0.00000000      0.00000000      0.00000000</v>
   <v name="AVECCONST">      0.00000000      0.00000000      0.00000000</v>
  </separator>
  <separator name="response functions" >
   <i type="logical" name="LADDER"> F  </i>
   <i type="logical" name="LFXC"> F  </i>
   <i type="logical" name="LHARTREE"> T  </i>
   <i type="int" name="IBSE">     0</i>
   <v type="int" name="KPOINT">    -1     0     0     0</v>
   <i type="logical" name="LTCTE"> F  </i>
   <i type="logical" name="LTETE"> F  </i>
   <i type="logical" name="LTRIPLET"> F  </i>
   <i type="logical" name="LFXCEPS"> F  </i>
   <i type="logical" name="LFXHEG"> F  </i>
   <i type="int" name="NATURALO">     0</i>
   <i type="logical" name="L2ORDER"> F  </i>
   <i type="logical" name="LUSEW"> F  </i>
   <i name="ENCUTGW">     -2.00000000</i>
   <i name="ENCUTGWSOFT">     -2.00000000</i>
   <i name="ENCUTLF">     -1.00000000</i>
   <i type="int" name="LMAXMP2">    -1</i>
   <i name="SCISSOR">      0.00000000</i>
   <i type="int" name="NOMEGA">     0</i>
   <i type="int" name="NOMEGAR">     0</i>
   <i type="int" name="NBANDSGW">    -1</i>
   <i type="int" name="NBANDSO">    -1</i>
   <i type="int" name="NBANDSV">    -1</i>
   <i type="int" name="NELM">    40</i>
   <i type="int" name="NELMHF">     1</i>
   <i type="int" name="DIM">     3</i>
   <i type="int" name="ANTIRES">     0</i>
   <i name="OMEGAMAX">    -30.00000000</i>
   <i name="OMEGAMIN">    -30.00000000</i>
   <i name="OMEGATL">   -200.00000000</i>
   <i type="int" name="OMEGAGRID">     0</i>
   <i name="CSHIFT">     -0.10000000</i>
   <i type="logical" name="SELFENERGY"> F  </i>
   <i type="logical" name="LSPECTRAL"> F  </i>
   <i type="logical" name="LSPECTRALGW"> F  </i>
   <i type="logical" name="LSINGLES"> F  </i>
   <i type="logical" name="LFERMIGW"> F  </i>
   <i type="logical" name="ODDONLYGW"> F  </i>
   <i type="logical" name="EVENONLYGW"> F  </i>
   <i type="int" name="NKREDLFX">     1</i>
   <i type="int" name="NKREDLFY">     1</i>
   <i type="int" name="NKREDLFZ">     1</i>
   <i type="int" name="MAXMEM">  1800</i>
   <i type="int" name="TELESCOPE">     0</i>
   <i type="int" name="TAUPAR">     1</i>
   <i type="int" name="OMEGAPAR">    -1</i>
   <i name="LAMBDA">      1.00000000</i>
  </separator>
  <separator name="External order field" >
   <i name="OFIELD_KAPPA">      0.00000000</i>
   <v name="OFIELD_K">      0.00000000      0.00000000      0.00000000</v>
   <i name="OFIELD_Q6_NEAR">      0.00000000</i>
   <i name="OFIELD_Q6_FAR">      0.00000000</i>
   <i name="OFIELD_A">      0.00000000</i>
  </separator>
 </parameters>
 <atominfo>
  <atoms>     156 </atoms>
  <types>       4 </types>
  <array name="atoms" >
   <dimension dim="1">ion</dimension>
   <field type="string">element</field>
   <field type="int">atomtype</field>
   <set>
    <rc><c>Sr</c><c>   1</c></rc>
    <rc><c>Sr</c><c>   1</c></rc>
    <rc><c>Sr</c><c>   1</c></rc>
    <rc><c>Sr</c><c>   1</c></rc>
    <rc><c>Sr</c><c>   1</c></rc>
    <rc><c>Sr</c><c>   1</c></rc>
    <rc><c>Sr</c><c>   1</c></rc>
    <rc><c>Sr</c><c>   1</c></rc>
    <rc><c>Sr</c><c>   1</c></rc>
    <rc><c>Sr</c><c>   1</c></rc>
    <rc><c>Sr</c><c>   1</c></rc>
    <rc><c>Sr</c><c>   1</c></rc>
    <rc><c>Sr</c><c>   1</c></rc>
    <rc><c>Sr</c><c>   1</c></rc>
    <rc><c>Sr</c><c>   1</c></rc>
    <rc><c>Sr</c><c>   1</c></rc>
    <rc><c>Sr</c><c>   1</c></rc>
    <rc><c>Sr</c><c>   1</c></rc>
    <rc><c>Sr</c><c>   1</c></rc>
    <rc><c>Sr</c><c>   1</c></rc>
    <rc><c>Sr</c><c>   1</c></rc>
    <rc><c>Sr</c><c>   1</c></rc>
    <rc><c>Sr</c><c>   1</c></rc>
    <rc><c>Sr</c><c>   1</c></rc>
    <rc><c>Sr</c><c>   1</c></rc>
    <rc><c>Sr</c><c>   1</c></rc>
    <rc><c>Sr</c><c>   1</c></rc>
    <rc><c>Sr</c><c>   1</c></rc>
    <rc><c>Sr</c><c>   1</c></rc>
    <rc><c>Sr</c><c>   1</c></rc>
    <rc><c>Sr</c><c>   1</c></rc>
    <rc><c>Sr</c><c>   1</c></rc>
    <rc><c>Ti</c><c>   2</c></rc>
    <rc><c>Ti</c><c>   2</c></rc>
    <rc><c>Ti</c><c>   2</c></rc>
    <rc><c>Ti</c><c>   2</c></rc>
    <rc><c>Ti</c><c>   2</c></rc>
    <rc><c>Ti</c><c>   2</c></rc>
    <rc><c>Ti</c><c>   2</c></rc>
    <rc><c>Ti</c><c>   2</c></rc>
    <rc><c>Ti</c><c>   2</c></rc>
    <rc><c>Ti</c><c>   2</c></rc>
    <rc><c>Ti</c><c>   2</c></rc>
    <rc><c>Ti</c><c>   2</c></rc>
    <rc><c>Ti</c><c>   2</c></rc>
    <rc><c>Ti</c><c>   2</c></rc>
    <rc><c>Ti</c><c>   2</c></rc>
    <rc><c>Ti</c><c>   2</c></rc>
    <rc><c>Ti</c><c>   2</c></rc>
    <rc><c>Ti</c><c>   2</c></rc>
    <rc><c>Ti</c><c>   2</c></rc>
    <rc><c>Ti</c><c>   2</c></rc>
    <rc><c>Ti</c><c>   2</c></rc>
    <rc><c>Ti</c><c>   2</c></rc>
    <rc><c>Ti</c><c>   2</c></rc>
    <rc><c>Ti</c><c>   2</c></rc>
    <rc><c>Fe</c><c>   3</c></rc>
    <rc><c>Fe</c><c>   3</c></rc>
    <rc><c>Fe</c><c>   3</c></rc>
    <rc><c>Fe</c><c>   3</c></rc>
    <rc><c>Fe</c><c>   3</c></rc>
    <rc><c>Fe</c><c>   3</c></rc>
    <rc><c>Fe</c><c>   3</c></rc>
    <rc><c>Fe</c><c>   3</c></rc>
    <rc><c>O </c><c>   4</c></rc>
    <rc><c>O </c><c>   4</c></rc>
    <rc><c>O </c><c>   4</c></rc>
    <rc><c>O </c><c>   4</c></rc>
    <rc><c>O </c><c>   4</c></rc>
    <rc><c>O </c><c>   4</c></rc>
    <rc><c>O </c><c>   4</c></rc>
    <rc><c>O </c><c>   4</c></rc>
    <rc><c>O </c><c>   4</c></rc>
    <rc><c>O </c><c>   4</c></rc>
    <rc><c>O </c><c>   4</c></rc>
    <rc><c>O </c><c>   4</c></rc>
    <rc><c>O </c><c>   4</c></rc>
    <rc><c>O </c><c>   4</c></rc>
    <rc><c>O </c><c>   4</c></rc>
    <rc><c>O </c><c>   4</c></rc>
    <rc><c>O </c><c>   4</c></rc>
    <rc><c>O </c><c>   4</c></rc>
    <rc><c>O </c><c>   4</c></rc>
    <rc><c>O </c><c>   4</c></rc>
    <rc><c>O </c><c>   4</c></rc>
    <rc><c>O </c><c>   4</c></rc>
    <rc><c>O </c><c>   4</c></rc>
    <rc><c>O </c><c>   4</c></rc>
    <rc><c>O </c><c>   4</c></rc>
    <rc><c>O </c><c>   4</c></rc>
    <rc><c>O </c><c>   4</c></rc>
    <rc><c>O </c><c>   4</c></rc>
    <rc><c>O </c><c>   4</c></rc>
    <rc><c>O </c><c>   4</c></rc>
    <rc><c>O </c><c>   4</c></rc>
    <rc><c>O </c><c>   4</c></rc>
    <rc><c>O </c><c>   4</c></rc>
    <rc><c>O </c><c>   4</c></rc>
    <rc><c>O </c><c>   4</c></rc>
    <rc><c>O </c><c>   4</c></rc>
    <rc><c>O </c><c>   4</c></rc>
    <rc><c>O </c><c>   4</c></rc>
    <rc><c>O </c><c>   4</c></rc>
    <rc><c>O </c><c>   4</c></rc>
    <rc><c>O </c><c>   4</c></rc>
    <rc><c>O </c><c>   4</c></rc>
    <rc><c>O </c><c>   4</c></rc>
    <rc><c>O </c><c>   4</c></rc>
    <rc><c>O </c><c>   4</c></rc>
    <rc><c>O </c><c>   4</c></rc>
    <rc><c>O </c><c>   4</c></rc>
    <rc><c>O </c><c>   4</c></rc>
    <rc><c>O </c><c>   4</c></rc>
    <rc><c>O </c><c>   4</c></rc>
    <rc><c>O </c><c>   4</c></rc>
    <rc><c>O </c><c>   4</c></rc>
    <rc><c>O </c><c>   4</c></rc>
    <rc><c>O </c><c>   4</c></rc>
    <rc><c>O </c><c>   4</c></rc>
    <rc><c>O </c><c>   4</c></rc>
    <rc><c>O </c><c>   4</c></rc>
    <rc><c>O </c><c>   4</c></rc>
    <rc><c>O </c><c>   4</c></rc>
    <rc><c>O </c><c>   4</c></rc>
    <rc><c>O </c><c>   4</c></rc>
    <rc><c>O </c><c>   4</c></rc>
    <rc><c>O </c><c>   4</c></rc>
    <rc><c>O </c><c>   4</c></rc>
    <rc><c>O </c><c>   4</c></rc>
    <rc><c>O </c><c>   4</c></rc>
    <rc><c>O </c><c>   4</c></rc>
    <rc><c>O </c><c>   4</c></rc>
    <rc><c>O </c><c>   4</c></rc>
    <rc><c>O </c><c>   4</c></rc>
    <rc><c>O </c><c>   4</c></rc>
    <rc><c>O </c><c>   4</c></rc>
    <rc><c>O </c><c>   4</c></rc>
    <rc><c>O </c><c>   4</c></rc>
    <rc><c>O </c><c>   4</c></rc>
    <rc><c>O </c><c>   4</c></rc>
    <rc><c>O </c><c>   4</c></rc>
    <rc><c>O </c><c>   4</c></rc>
    <rc><c>O </c><c>   4</c></rc>
    <rc><c>O </c><c>   4</c></rc>
    <rc><c>O </c><c>   4</c></rc>
    <rc><c>O </c><c>   4</c></rc>
    <rc><c>O </c><c>   4</c></rc>
    <rc><c>O </c><c>   4</c></rc>
    <rc><c>O </c><c>   4</c></rc>
    <rc><c>O </c><c>   4</c></rc>
    <rc><c>O </c><c>   4</c></rc>
    <rc><c>O </c><c>   4</c></rc>
    <rc><c>O </c><c>   4</c></rc>
    <rc><c>O </c><c>   4</c></rc>
    <rc><c>O </c><c>   4</c></rc>
    <rc><c>O </c><c>   4</c></rc>
   </set>
  </array>
  <array name="atomtypes" >
   <dimension dim="1">type</dimension>
   <field type="int">atomspertype</field>
   <field type="string">element</field>
   <field>mass</field>
   <field>valence</field>
   <field type="string">pseudopotential</field>
   <set>
    <rc><c>  32</c><c>Sr</c><c>     87.62000000</c><c>     10.00000000</c><c>  PAW_PBE Sr_sv 07Sep2000               </c></rc>
    <rc><c>  24</c><c>Ti</c><c>     47.88000000</c><c>      4.00000000</c><c>  PAW_PBE Ti 08Apr2002                  </c></rc>
    <rc><c>   8</c><c>Fe</c><c>     55.84700000</c><c>      8.00000000</c><c>  PAW_PBE Fe 06Sep2000                  </c></rc>
    <rc><c>  92</c><c>O </c><c>     16.00000000</c><c>      6.00000000</c><c>  PAW_PBE O 08Apr2002                   </c></rc>
   </set>
  </array>
 </atominfo>
 <structure name="initialpos" >
  <crystal>
   <varray name="basis" >
    <v>      11.19900000       0.00000000       0.00000000 </v>
    <v>       0.00000000      11.19900000       0.00000000 </v>
    <v>       0.00000000       0.00000000      15.98300000 </v>
   </varray>
   <i name="volume">   2004.54951678 </i>
   <varray name="rec_basis" >
    <v>       0.08929369       0.00000000       0.00000000 </v>
    <v>       0.00000000       0.08929369       0.00000000 </v>
    <v>       0.00000000       0.00000000       0.06256648 </v>
   </varray>
  </crystal>
  <varray name="positions" >
   <v>       0.00000000       0.25000000       0.12500000 </v>
   <v>       0.00000000       0.25000000       0.62500000 </v>
   <v>       0.00000000       0.75000000       0.12500000 </v>
   <v>       0.00000000       0.75000000       0.62500000 </v>
   <v>       0.50000000       0.25000000       0.12500000 </v>
   <v>       0.50000000       0.25000000       0.62500000 </v>
   <v>       0.50000000       0.75000000       0.12500000 </v>
   <v>       0.50000000       0.75000000       0.62500000 </v>
   <v>       0.00000000       0.25000000       0.37500000 </v>
   <v>       0.00000000       0.25000000       0.87500000 </v>
   <v>       0.00000000       0.75000000       0.37500000 </v>
   <v>       0.00000000       0.75000000       0.87500000 </v>
   <v>       0.50000000       0.25000000       0.37500000 </v>
   <v>       0.50000000       0.25000000       0.87500000 </v>
   <v>       0.50000000       0.75000000       0.37500000 </v>
   <v>       0.50000000       0.75000000       0.87500000 </v>
   <v>       0.25000000       0.00000000       0.12500000 </v>
   <v>       0.25000000       0.00000000       0.62500000 </v>
   <v>       0.25000000       0.50000000       0.12500000 </v>
   <v>       0.25000000       0.50000000       0.62500000 </v>
   <v>       0.75000000       0.00000000       0.12500000 </v>
   <v>       0.75000000       0.00000000       0.62500000 </v>
   <v>       0.75000000       0.50000000       0.12500000 </v>
   <v>       0.75000000       0.50000000       0.62500000 </v>
   <v>       0.25000000       0.00000000       0.37500000 </v>
   <v>       0.25000000       0.00000000       0.87500000 </v>
   <v>       0.25000000       0.50000000       0.37500000 </v>
   <v>       0.25000000       0.50000000       0.87500000 </v>
   <v>       0.75000000       0.00000000       0.37500000 </v>
   <v>       0.75000000       0.00000000       0.87500000 </v>
   <v>       0.75000000       0.50000000       0.37500000 </v>
   <v>       0.75000000       0.50000000       0.87500000 </v>
   <v>       0.00000000       0.00000000       0.00000000 </v>
   <v>       0.00000000       0.00000000       0.50000000 </v>
   <v>       0.00000000       0.50000000       0.00000000 </v>
   <v>       0.00000000       0.50000000       0.50000000 </v>
   <v>       0.50000000       0.00000000       0.00000000 </v>
   <v>       0.50000000       0.00000000       0.50000000 </v>
   <v>       0.50000000       0.50000000       0.00000000 </v>
   <v>       0.50000000       0.50000000       0.50000000 </v>
   <v>       0.25000000       0.25000000       0.00000000 </v>
   <v>       0.25000000       0.75000000       0.50000000 </v>
   <v>       0.75000000       0.25000000       0.50000000 </v>
   <v>       0.75000000       0.75000000       0.00000000 </v>
   <v>       0.25000000       0.25000000       0.25000000 </v>
   <v>       0.25000000       0.75000000       0.75000000 </v>
   <v>       0.75000000       0.25000000       0.75000000 </v>
   <v>       0.75000000       0.75000000       0.25000000 </v>
   <v>       0.00000000       0.00000000       0.25000000 </v>
   <v>       0.00000000       0.00000000       0.75000000 </v>
   <v>       0.00000000       0.50000000       0.25000000 </v>
   <v>       0.00000000       0.50000000       0.75000000 </v>
   <v>       0.50000000       0.00000000       0.25000000 </v>
   <v>       0.50000000       0.00000000       0.75000000 </v>
   <v>       0.50000000       0.50000000       0.25000000 </v>
   <v>       0.50000000       0.50000000       0.75000000 </v>
   <v>       0.75000000       0.25000000       0.25000000 </v>
   <v>       0.75000000       0.25000000       0.00000000 </v>
   <v>       0.25000000       0.75000000       0.25000000 </v>
   <v>       0.25000000       0.75000000       0.00000000 </v>
   <v>       0.25000000       0.25000000       0.75000000 </v>
   <v>       0.25000000       0.25000000       0.50000000 </v>
   <v>       0.75000000       0.75000000       0.75000000 </v>
   <v>       0.75000000       0.75000000       0.50000000 </v>
   <v>       0.00000000       0.00000000       0.12500000 </v>
   <v>       0.00000000       0.00000000       0.62500000 </v>
   <v>       0.00000000       0.50000000       0.12500000 </v>
   <v>       0.00000000       0.50000000       0.62500000 </v>
   <v>       0.50000000       0.00000000       0.12500000 </v>
   <v>       0.50000000       0.00000000       0.62500000 </v>
   <v>       0.50000000       0.50000000       0.12500000 </v>
   <v>       0.50000000       0.50000000       0.62500000 </v>
   <v>       0.00000000       0.00000000       0.37500000 </v>
   <v>       0.00000000       0.00000000       0.87500000 </v>
   <v>       0.00000000       0.50000000       0.37500000 </v>
   <v>       0.00000000       0.50000000       0.87500000 </v>
   <v>       0.50000000       0.00000000       0.37500000 </v>
   <v>       0.50000000       0.00000000       0.87500000 </v>
   <v>       0.50000000       0.50000000       0.37500000 </v>
   <v>       0.50000000       0.50000000       0.87500000 </v>
   <v>       0.25000000       0.25000000       0.37500000 </v>
   <v>       0.25000000       0.25000000       0.87500000 </v>
   <v>       0.25000000       0.75000000       0.37500000 </v>
   <v>       0.25000000       0.75000000       0.87500000 </v>
   <v>       0.75000000       0.25000000       0.37500000 </v>
   <v>       0.75000000       0.25000000       0.87500000 </v>
   <v>       0.75000000       0.75000000       0.37500000 </v>
   <v>       0.75000000       0.75000000       0.87500000 </v>
   <v>       0.25000000       0.25000000       0.12500000 </v>
   <v>       0.25000000       0.75000000       0.62500000 </v>
   <v>       0.75000000       0.25000000       0.62500000 </v>
   <v>       0.75000000       0.75000000       0.12500000 </v>
   <v>       0.10900000       0.14100000       0.25000000 </v>
   <v>       0.35900000       0.10900000       0.25000000 </v>
   <v>       0.60900000       0.14100000       0.25000000 </v>
   <v>       0.85900000       0.10900000       0.25000000 </v>
   <v>       0.14100000       0.39100000       0.25000000 </v>
   <v>       0.39100000       0.35900000       0.25000000 </v>
   <v>       0.64100000       0.39100000       0.25000000 </v>
   <v>       0.89100000       0.35900000       0.25000000 </v>
   <v>       0.10900000       0.64100000       0.25000000 </v>
   <v>       0.35900000       0.60900000       0.25000000 </v>
   <v>       0.60900000       0.64100000       0.25000000 </v>
   <v>       0.85900000       0.60900000       0.25000000 </v>
   <v>       0.14100000       0.89100000       0.25000000 </v>
   <v>       0.39100000       0.85900000       0.25000000 </v>
   <v>       0.64100000       0.89100000       0.25000000 </v>
   <v>       0.89100000       0.85900000       0.25000000 </v>
   <v>       0.14100000       0.10900000       0.50000000 </v>
   <v>       0.39100000       0.14100000       0.50000000 </v>
   <v>       0.64100000       0.10900000       0.50000000 </v>
   <v>       0.89100000       0.14100000       0.50000000 </v>
   <v>       0.10900000       0.35900000       0.50000000 </v>
   <v>       0.35900000       0.39100000       0.50000000 </v>
   <v>       0.60900000       0.35900000       0.50000000 </v>
   <v>       0.85900000       0.39100000       0.50000000 </v>
   <v>       0.14100000       0.60900000       0.50000000 </v>
   <v>       0.39100000       0.64100000       0.50000000 </v>
   <v>       0.64100000       0.60900000       0.50000000 </v>
   <v>       0.89100000       0.64100000       0.50000000 </v>
   <v>       0.10900000       0.85900000       0.50000000 </v>
   <v>       0.35900000       0.89100000       0.50000000 </v>
   <v>       0.60900000       0.85900000       0.50000000 </v>
   <v>       0.85900000       0.89100000       0.50000000 </v>
   <v>       0.10900000       0.14100000       0.75000000 </v>
   <v>       0.35900000       0.10900000       0.75000000 </v>
   <v>       0.60900000       0.14100000       0.75000000 </v>
   <v>       0.85900000       0.10900000       0.75000000 </v>
   <v>       0.14100000       0.39100000       0.75000000 </v>
   <v>       0.39100000       0.35900000       0.75000000 </v>
   <v>       0.64100000       0.39100000       0.75000000 </v>
   <v>       0.89100000       0.35900000       0.75000000 </v>
   <v>       0.10900000       0.64100000       0.75000000 </v>
   <v>       0.35900000       0.60900000       0.75000000 </v>
   <v>       0.60900000       0.64100000       0.75000000 </v>
   <v>       0.85900000       0.60900000       0.75000000 </v>
   <v>       0.14100000       0.89100000       0.75000000 </v>
   <v>       0.39100000       0.85900000       0.75000000 </v>
   <v>       0.64100000       0.89100000       0.75000000 </v>
   <v>       0.89100000       0.85900000       0.75000000 </v>
   <v>       0.14100000       0.10900000       0.00000000 </v>
   <v>       0.39100000       0.14100000       0.00000000 </v>
   <v>       0.64100000       0.10900000       0.00000000 </v>
   <v>       0.89100000       0.14100000       0.00000000 </v>
   <v>       0.10900000       0.35900000       0.00000000 </v>
   <v>       0.35900000       0.39100000       0.00000000 </v>
   <v>       0.60900000       0.35900000       0.00000000 </v>
   <v>       0.85900000       0.39100000       0.00000000 </v>
   <v>       0.14100000       0.60900000       0.00000000 </v>
   <v>       0.39100000       0.64100000       0.00000000 </v>
   <v>       0.64100000       0.60900000       0.00000000 </v>
   <v>       0.89100000       0.64100000       0.00000000 </v>
   <v>       0.10900000       0.85900000       0.00000000 </v>
   <v>       0.35900000       0.89100000       0.00000000 </v>
   <v>       0.60900000       0.85900000       0.00000000 </v>
   <v>       0.85900000       0.89100000       0.00000000 </v>
  </varray>
 </structure>
 <calculation>
  <scstep>
   <time name="dav">   70.80   70.81</time>
   <time name="total">   71.40   71.41</time>
   <energy>
    <i name="alphaZ">   5629.87157133 </i>
    <i name="ewald"> -61858.14874911 </i>
    <i name="hartreedc"> -14694.76161524 </i>
    <i name="XCdc">   2853.94034954 </i>
    <i name="pawpsdc">  59500.05357861 </i>
    <i name="pawaedc"> -58173.30067244 </i>
    <i name="eentropy">     -0.06754638 </i>
    <i name="bandstr">   5340.40560217 </i>
    <i name="atom">  73783.44779670 </i>
    <i name="e_fr_energy">  12381.44031519 </i>
    <i name="e_wo_entrp">  12381.50786156 </i>
    <i name="e_0_energy">  12381.47408838 </i>
   </energy>
  </scstep>
  <scstep>
   <time name="dav">   71.02   71.03</time>
   <time name="total">   71.03   71.11</time>
   <energy>
    <i name="e_fr_energy">    825.34207486 </i>
    <i name="e_wo_entrp">    825.34314865 </i>
    <i name="e_0_energy">    825.34261175 </i>
   </energy>
  </scstep>
  <scstep>
   <time name="dav">   74.67   74.68</time>
   <time name="total">   74.68   74.75</time>
   <energy>
    <i name="e_fr_energy">  -1278.83817358 </i>
    <i name="e_wo_entrp">  -1278.83817358 </i>
    <i name="e_0_energy">  -1278.83817358 </i>
   </energy>
  </scstep>
  <scstep>
   <time name="dav">   91.13   91.14</time>
   <time name="total">   91.13   91.22</time>
   <energy>
    <i name="e_fr_energy">  -1450.61234826 </i>
    <i name="e_wo_entrp">  -1450.61234826 </i>
    <i name="e_0_energy">  -1450.61234826 </i>
   </energy>
  </scstep>
  <scstep>
   <time name="dav">  115.68  115.70</time>
   <time name="total">  117.11  117.14</time>
   <energy>
    <i name="e_fr_energy">  -1460.63827845 </i>
    <i name="e_wo_entrp">  -1460.63827845 </i>
    <i name="e_0_energy">  -1460.63827845 </i>
   </energy>
  </scstep>
  <scstep>
   <time name="diag">    8.33    8.34</time>
   <time name="diis">   13.48   13.48</time>
   <time name="orth">    4.78    4.78</time>
   <time name="total">   28.62   28.67</time>
   <energy>
    <i name="e_fr_energy">  -1130.87277321 </i>
    <i name="e_wo_entrp">  -1130.87277321 </i>
    <i name="e_0_energy">  -1130.87277321 </i>
   </energy>
  </scstep>
  <scstep>
   <time name="diag">    8.37    8.38</time>
   <time name="diis">   13.46   13.48</time>
   <time name="orth">    4.74    4.74</time>
   <time name="total">   28.60   28.62</time>
   <energy>
    <i name="e_fr_energy">  -1108.01647947 </i>
    <i name="e_wo_entrp">  -1108.01647947 </i>
    <i name="e_0_energy">  -1108.01647947 </i>
   </energy>
  </scstep>
  <scstep>
   <time name="diag">    8.33    8.34</time>
   <time name="diis">   14.14   14.15</time>
   <time name="orth">    4.76    4.76</time>
   <time name="total">   29.25   29.28</time>
   <energy>
    <i name="e_fr_energy">  -1108.79281311 </i>
    <i name="e_wo_entrp">  -1108.79281311 </i>
    <i name="e_0_energy">  -1108.79281311 </i>
   </energy>
  </scstep>
  <scstep>
   <time name="diag">    8.36    8.37</time>
   <time name="diis">   13.25   13.26</time>
   <time name="orth">    4.74    4.75</time>
   <time name="total">   28.40   28.49</time>
   <energy>
    <i name="e_fr_energy">  -1113.60019777 </i>
    <i name="e_wo_entrp">  -1113.60019777 </i>
    <i name="e_0_energy">  -1113.60019777 </i>
   </energy>
  </scstep>
  <scstep>
   <time name="diag">    8.36    8.36</time>
   <time name="diis">   14.25   14.26</time>
   <time name="orth">    4.74    4.74</time>
   <time name="total">   29.38   29.45</time>
   <energy>
    <i name="e_fr_energy">  -1114.13850007 </i>
    <i name="e_wo_entrp">  -1114.13850007 </i>
    <i name="e_0_energy">  -1114.13850007 </i>
   </energy>
  </scstep>
  <scstep>
   <time name="diag">    8.32    8.33</time>
   <time name="diis">   15.60   15.63</time>
   <time name="orth">    4.74    4.74</time>
   <time name="total">   30.71   30.75</time>
   <energy>
    <i name="e_fr_energy">  -1115.21806306 </i>
    <i name="e_wo_entrp">  -1115.21806306 </i>
    <i name="e_0_energy">  -1115.21806306 </i>
   </energy>
  </scstep>
  <scstep>
   <time name="diag">    8.29    8.30</time>
   <time name="diis">   13.93   13.94</time>
   <time name="orth">    4.74    4.74</time>
   <time name="total">   29.01   29.05</time>
   <energy>
    <i name="e_fr_energy">  -1115.94483423 </i>
    <i name="e_wo_entrp">  -1115.94483423 </i>
    <i name="e_0_energy">  -1115.94483423 </i>
   </energy>
  </scstep>
  <scstep>
   <time name="diag">    8.29    8.30</time>
   <time name="diis">   14.67   14.67</time>
   <time name="orth">    4.76    4.76</time>
   <time name="total">   29.75   29.76</time>
   <energy>
    <i name="e_fr_energy">  -1116.26233540 </i>
    <i name="e_wo_entrp">  -1116.26233540 </i>
    <i name="e_0_energy">  -1116.26233540 </i>
   </energy>
  </scstep>
  <scstep>
   <time name="diag">    8.32    8.32</time>
   <time name="diis">   15.15   15.16</time>
   <time name="orth">    4.76    4.76</time>
   <time name="total">   30.26   30.28</time>
   <energy>
    <i name="e_fr_energy">  -1116.33638879 </i>
    <i name="e_wo_entrp">  -1116.33638879 </i>
    <i name="e_0_energy">  -1116.33638879 </i>
   </energy>
  </scstep>
  <scstep>
   <time name="diag">    8.33    8.33</time>
   <time name="diis">   14.88   14.87</time>
   <time name="orth">    4.75    4.76</time>
   <time name="total">   29.99   30.01</time>
   <energy>
    <i name="e_fr_energy">  -1116.35289633 </i>
    <i name="e_wo_entrp">  -1116.35289633 </i>
    <i name="e_0_energy">  -1116.35289633 </i>
   </energy>
  </scstep>
  <scstep>
   <time name="diag">    8.32    8.32</time>
   <time name="diis">   17.17   17.19</time>
   <time name="orth">    4.75    4.75</time>
   <time name="total">   32.28   32.31</time>
   <energy>
    <i name="e_fr_energy">  -1116.35708421 </i>
    <i name="e_wo_entrp">  -1116.35708421 </i>
    <i name="e_0_energy">  -1116.35708421 </i>
   </energy>
  </scstep>
  <scstep>
   <time name="diag">    8.38    8.39</time>
   <time name="diis">   14.89   14.89</time>
   <time name="orth">    4.74    4.74</time>
   <time name="total">   30.06   30.09</time>
   <energy>
    <i name="e_fr_energy">  -1116.35729327 </i>
    <i name="e_wo_entrp">  -1116.35729327 </i>
    <i name="e_0_energy">  -1116.35729327 </i>
   </energy>
  </scstep>
  <scstep>
   <time name="diag">    8.34    8.35</time>
   <time name="diis">   13.93   13.94</time>
   <time name="orth">    4.77    4.77</time>
   <time name="total">   29.08   29.12</time>
   <energy>
    <i name="e_fr_energy">  -1116.35748913 </i>
    <i name="e_wo_entrp">  -1116.35748913 </i>
    <i name="e_0_energy">  -1116.35748913 </i>
   </energy>
  </scstep>
  <scstep>
   <time name="diag">    8.34    8.34</time>
   <time name="diis">   11.22   11.22</time>
   <time name="orth">    4.74    4.75</time>
   <time name="total">   26.35   26.36</time>
   <energy>
    <i name="e_fr_energy">  -1116.35760122 </i>
    <i name="e_wo_entrp">  -1116.35760122 </i>
    <i name="e_0_energy">  -1116.35760122 </i>
   </energy>
  </scstep>
  <scstep>
   <time name="diag">    8.31    8.32</time>
   <time name="diis">   10.32   10.32</time>
   <time name="orth">    4.73    4.73</time>
   <time name="total">   23.95   23.96</time>
   <energy>
    <i name="alphaZ">   5629.87157133 </i>
    <i name="ewald"> -61858.14874911 </i>
    <i name="hartreedc"> -15690.75208571 </i>
    <i name="XCdc">   2959.61377363 </i>
    <i name="pawpsdc"> 110947.00202854 </i>
    <i name="pawaedc">-109846.07440732 </i>
    <i name="eentropy">     -0.00000000 </i>
    <i name="bandstr">  -7041.31758965 </i>
    <i name="atom">  73783.44779670 </i>
    <i name="e_fr_energy">  -1116.35766158 </i>
    <i name="e_wo_entrp">  -1116.35766158 </i>
    <i name="e_0_energy">  -1116.35766158 </i>
   </energy>
  </scstep>
  <structure>
   <crystal>
    <varray name="basis" >
     <v>      11.19900000       0.00000000       0.00000000 </v>
     <v>       0.00000000      11.19900000       0.00000000 </v>
     <v>       0.00000000       0.00000000      15.98300000 </v>
    </varray>
    <i name="volume">   2004.54951678 </i>
    <varray name="rec_basis" >
     <v>       0.08929369       0.00000000       0.00000000 </v>
     <v>       0.00000000       0.08929369       0.00000000 </v>
     <v>       0.00000000       0.00000000       0.06256648 </v>
    </varray>
   </crystal>
   <varray name="positions" >
    <v>       0.00000000       0.25000000       0.12500000 </v>
    <v>       0.00000000       0.25000000       0.62500000 </v>
    <v>       0.00000000       0.75000000       0.12500000 </v>
    <v>       0.00000000       0.75000000       0.62500000 </v>
    <v>       0.50000000       0.25000000       0.12500000 </v>
    <v>       0.50000000       0.25000000       0.62500000 </v>
    <v>       0.50000000       0.75000000       0.12500000 </v>
    <v>       0.50000000       0.75000000       0.62500000 </v>
    <v>       0.00000000       0.25000000       0.37500000 </v>
    <v>       0.00000000       0.25000000       0.87500000 </v>
    <v>       0.00000000       0.75000000       0.37500000 </v>
    <v>       0.00000000       0.75000000       0.87500000 </v>
    <v>       0.50000000       0.25000000       0.37500000 </v>
    <v>       0.50000000       0.25000000       0.87500000 </v>
    <v>       0.50000000       0.75000000       0.37500000 </v>
    <v>       0.50000000       0.75000000       0.87500000 </v>
    <v>       0.25000000       0.00000000       0.12500000 </v>
    <v>       0.25000000       0.00000000       0.62500000 </v>
    <v>       0.25000000       0.50000000       0.12500000 </v>
    <v>       0.25000000       0.50000000       0.62500000 </v>
    <v>       0.75000000       0.00000000       0.12500000 </v>
    <v>       0.75000000       0.00000000       0.62500000 </v>
    <v>       0.75000000       0.50000000       0.12500000 </v>
    <v>       0.75000000       0.50000000       0.62500000 </v>
    <v>       0.25000000       0.00000000       0.37500000 </v>
    <v>       0.25000000       0.00000000       0.87500000 </v>
    <v>       0.25000000       0.50000000       0.37500000 </v>
    <v>       0.25000000       0.50000000       0.87500000 </v>
    <v>       0.75000000       0.00000000       0.37500000 </v>
    <v>       0.75000000       0.00000000       0.87500000 </v>
    <v>       0.75000000       0.50000000       0.37500000 </v>
    <v>       0.75000000       0.50000000       0.87500000 </v>
    <v>       0.00000000       0.00000000       0.00000000 </v>
    <v>       0.00000000       0.00000000       0.50000000 </v>
    <v>       0.00000000       0.50000000       0.00000000 </v>
    <v>       0.00000000       0.50000000       0.50000000 </v>
    <v>       0.50000000       0.00000000       0.00000000 </v>
    <v>       0.50000000       0.00000000       0.50000000 </v>
    <v>       0.50000000       0.50000000       0.00000000 </v>
    <v>       0.50000000       0.50000000       0.50000000 </v>
    <v>       0.25000000       0.25000000       0.00000000 </v>
    <v>       0.25000000       0.75000000       0.50000000 </v>
    <v>       0.75000000       0.25000000       0.50000000 </v>
    <v>       0.75000000       0.75000000       0.00000000 </v>
    <v>       0.25000000       0.25000000       0.25000000 </v>
    <v>       0.25000000       0.75000000       0.75000000 </v>
    <v>       0.75000000       0.25000000       0.75000000 </v>
    <v>       0.75000000       0.75000000       0.25000000 </v>
    <v>       0.00000000       0.00000000       0.25000000 </v>
    <v>       0.00000000       0.00000000       0.75000000 </v>
    <v>       0.00000000       0.50000000       0.25000000 </v>
    <v>       0.00000000       0.50000000       0.75000000 </v>
    <v>       0.50000000       0.00000000       0.25000000 </v>
    <v>       0.50000000       0.00000000       0.75000000 </v>
    <v>       0.50000000       0.50000000       0.25000000 </v>
    <v>       0.50000000       0.50000000       0.75000000 </v>
    <v>       0.75000000       0.25000000       0.25000000 </v>
    <v>       0.75000000       0.25000000       0.00000000 </v>
    <v>       0.25000000       0.75000000       0.25000000 </v>
    <v>       0.25000000       0.75000000       0.00000000 </v>
    <v>       0.25000000       0.25000000       0.75000000 </v>
    <v>       0.25000000       0.25000000       0.50000000 </v>
    <v>       0.75000000       0.75000000       0.75000000 </v>
    <v>       0.75000000       0.75000000       0.50000000 </v>
    <v>       0.00000000       0.00000000       0.12500000 </v>
    <v>       0.00000000       0.00000000       0.62500000 </v>
    <v>       0.00000000       0.50000000       0.12500000 </v>
    <v>       0.00000000       0.50000000       0.62500000 </v>
    <v>       0.50000000       0.00000000       0.12500000 </v>
    <v>       0.50000000       0.00000000       0.62500000 </v>
    <v>       0.50000000       0.50000000       0.12500000 </v>
    <v>       0.50000000       0.50000000       0.62500000 </v>
    <v>       0.00000000       0.00000000       0.37500000 </v>
    <v>       0.00000000       0.00000000       0.87500000 </v>
    <v>       0.00000000       0.50000000       0.37500000 </v>
    <v>       0.00000000       0.50000000       0.87500000 </v>
    <v>       0.50000000       0.00000000       0.37500000 </v>
    <v>       0.50000000       0.00000000       0.87500000 </v>
    <v>       0.50000000       0.50000000       0.37500000 </v>
    <v>       0.50000000       0.50000000       0.87500000 </v>
    <v>       0.25000000       0.25000000       0.37500000 </v>
    <v>       0.25000000       0.25000000       0.87500000 </v>
    <v>       0.25000000       0.75000000       0.37500000 </v>
    <v>       0.25000000       0.75000000       0.87500000 </v>
    <v>       0.75000000       0.25000000       0.37500000 </v>
    <v>       0.75000000       0.25000000       0.87500000 </v>
    <v>       0.75000000       0.75000000       0.37500000 </v>
    <v>       0.75000000       0.75000000       0.87500000 </v>
    <v>       0.25000000       0.25000000       0.12500000 </v>
    <v>       0.25000000       0.75000000       0.62500000 </v>
    <v>       0.75000000       0.25000000       0.62500000 </v>
    <v>       0.75000000       0.75000000       0.12500000 </v>
    <v>       0.10900000       0.14100000       0.25000000 </v>
    <v>       0.35900000       0.10900000       0.25000000 </v>
    <v>       0.60900000       0.14100000       0.25000000 </v>
    <v>       0.85900000       0.10900000       0.25000000 </v>
    <v>       0.14100000       0.39100000       0.25000000 </v>
    <v>       0.39100000       0.35900000       0.25000000 </v>
    <v>       0.64100000       0.39100000       0.25000000 </v>
    <v>       0.89100000       0.35900000       0.25000000 </v>
    <v>       0.10900000       0.64100000       0.25000000 </v>
    <v>       0.35900000       0.60900000       0.25000000 </v>
    <v>       0.60900000       0.64100000       0.25000000 </v>
    <v>       0.85900000       0.60900000       0.25000000 </v>
    <v>       0.14100000       0.89100000       0.25000000 </v>
    <v>       0.39100000       0.85900000       0.25000000 </v>
    <v>       0.64100000       0.89100000       0.25000000 </v>
    <v>       0.89100000       0.85900000       0.25000000 </v>
    <v>       0.14100000       0.10900000       0.50000000 </v>
    <v>       0.39100000       0.14100000       0.50000000 </v>
    <v>       0.64100000       0.10900000       0.50000000 </v>
    <v>       0.89100000       0.14100000       0.50000000 </v>
    <v>       0.10900000       0.35900000       0.50000000 </v>
    <v>       0.35900000       0.39100000       0.50000000 </v>
    <v>       0.60900000       0.35900000       0.50000000 </v>
    <v>       0.85900000       0.39100000       0.50000000 </v>
    <v>       0.14100000       0.60900000       0.50000000 </v>
    <v>       0.39100000       0.64100000       0.50000000 </v>
    <v>       0.64100000       0.60900000       0.50000000 </v>
    <v>       0.89100000       0.64100000       0.50000000 </v>
    <v>       0.10900000       0.85900000       0.50000000 </v>
    <v>       0.35900000       0.89100000       0.50000000 </v>
    <v>       0.60900000       0.85900000       0.50000000 </v>
    <v>       0.85900000       0.89100000       0.50000000 </v>
    <v>       0.10900000       0.14100000       0.75000000 </v>
    <v>       0.35900000       0.10900000       0.75000000 </v>
    <v>       0.60900000       0.14100000       0.75000000 </v>
    <v>       0.85900000       0.10900000       0.75000000 </v>
    <v>       0.14100000       0.39100000       0.75000000 </v>
    <v>       0.39100000       0.35900000       0.75000000 </v>
    <v>       0.64100000       0.39100000       0.75000000 </v>
    <v>       0.89100000       0.35900000       0.75000000 </v>
    <v>       0.10900000       0.64100000       0.75000000 </v>
    <v>       0.35900000       0.60900000       0.75000000 </v>
    <v>       0.60900000       0.64100000       0.75000000 </v>
    <v>       0.85900000       0.60900000       0.75000000 </v>
    <v>       0.14100000       0.89100000       0.75000000 </v>
    <v>       0.39100000       0.85900000       0.75000000 </v>
    <v>       0.64100000       0.89100000       0.75000000 </v>
    <v>       0.89100000       0.85900000       0.75000000 </v>
    <v>       0.14100000       0.10900000       0.00000000 </v>
    <v>       0.39100000       0.14100000       0.00000000 </v>
    <v>       0.64100000       0.10900000       0.00000000 </v>
    <v>       0.89100000       0.14100000       0.00000000 </v>
    <v>       0.10900000       0.35900000       0.00000000 </v>
    <v>       0.35900000       0.39100000       0.00000000 </v>
    <v>       0.60900000       0.35900000       0.00000000 </v>
    <v>       0.85900000       0.39100000       0.00000000 </v>
    <v>       0.14100000       0.60900000       0.00000000 </v>
    <v>       0.39100000       0.64100000       0.00000000 </v>
    <v>       0.64100000       0.60900000       0.00000000 </v>
    <v>       0.89100000       0.64100000       0.00000000 </v>
    <v>       0.10900000       0.85900000       0.00000000 </v>
    <v>       0.35900000       0.89100000       0.00000000 </v>
    <v>       0.60900000       0.85900000       0.00000000 </v>
    <v>       0.85900000       0.89100000       0.00000000 </v>
   </varray>
  </structure>
  <varray name="forces" >
   <v>       0.81279810      -0.00000000      -0.00000000 </v>
   <v>      -0.81279810      -0.00000000      -0.00000000 </v>
   <v>      -0.81279810      -0.00000000      -0.00000000 </v>
   <v>       0.81279810      -0.00000000      -0.00000000 </v>
   <v>      -0.81279810      -0.00000000      -0.00000000 </v>
   <v>       0.81279810      -0.00000000      -0.00000000 </v>
   <v>       0.81279810      -0.00000000      -0.00000000 </v>
   <v>      -0.81279810      -0.00000000      -0.00000000 </v>
   <v>      -0.00000000      -0.03370044      -0.00000000 </v>
   <v>      -0.00000000       0.03370044      -0.00000000 </v>
   <v>      -0.00000000       0.03370044      -0.00000000 </v>
   <v>      -0.00000000      -0.03370044      -0.00000000 </v>
   <v>      -0.00000000       0.03370044      -0.00000000 </v>
   <v>      -0.00000000      -0.03370044      -0.00000000 </v>
   <v>      -0.00000000      -0.03370044      -0.00000000 </v>
   <v>      -0.00000000       0.03370044      -0.00000000 </v>
   <v>      -0.00000000       0.81279810      -0.00000000 </v>
   <v>      -0.00000000      -0.81279810      -0.00000000 </v>
   <v>      -0.00000000      -0.81279810      -0.00000000 </v>
   <v>      -0.00000000       0.81279810      -0.00000000 </v>
   <v>      -0.00000000      -0.81279810      -0.00000000 </v>
   <v>      -0.00000000       0.81279810      -0.00000000 </v>
   <v>      -0.00000000       0.81279810      -0.00000000 </v>
   <v>      -0.00000000      -0.81279810      -0.00000000 </v>
   <v>       0.03370044      -0.00000000      -0.00000000 </v>
   <v>      -0.03370044      -0.00000000      -0.00000000 </v>
   <v>      -0.03370044      -0.00000000      -0.00000000 </v>
   <v>       0.03370044      -0.00000000      -0.00000000 </v>
   <v>      -0.03370044      -0.00000000      -0.00000000 </v>
   <v>       0.03370044      -0.00000000      -0.00000000 </v>
   <v>       0.03370044      -0.00000000      -0.00000000 </v>
   <v>      -0.03370044      -0.00000000      -0.00000000 </v>
   <v>      -0.00000000      -0.00000000       0.02032560 </v>
   <v>      -0.00000000      -0.00000000       0.02032560 </v>
   <v>      -0.00000000      -0.00000000       0.02032560 </v>
   <v>      -0.00000000      -0.00000000       0.02032560 </v>
   <v>      -0.00000000      -0.00000000       0.02032560 </v>
   <v>      -0.00000000      -0.00000000       0.02032560 </v>
   <v>      -0.00000000      -0.00000000       0.02032560 </v>
   <v>      -0.00000000      -0.00000000       0.02032560 </v>
   <v>      -0.00000000      -0.00000000      -0.56662866 </v>
   <v>      -0.00000000      -0.00000000      -0.56662866 </v>
   <v>      -0.00000000      -0.00000000      -0.56662866 </v>
   <v>      -0.00000000      -0.00000000      -0.56662866 </v>
   <v>      -0.00000000      -0.00000000       0.56662866 </v>
   <v>      -0.00000000      -0.00000000       0.56662866 </v>
   <v>      -0.00000000      -0.00000000       0.56662866 </v>
   <v>      -0.00000000      -0.00000000       0.56662866 </v>
   <v>      -0.00000000      -0.00000000      -0.02032560 </v>
   <v>      -0.00000000      -0.00000000      -0.02032560 </v>
   <v>      -0.00000000      -0.00000000      -0.02032560 </v>
   <v>      -0.00000000      -0.00000000      -0.02032560 </v>
   <v>      -0.00000000      -0.00000000      -0.02032560 </v>
   <v>      -0.00000000      -0.00000000      -0.02032560 </v>
   <v>      -0.00000000      -0.00000000      -0.02032560 </v>
   <v>      -0.00000000      -0.00000000      -0.02032560 </v>
   <v>      -0.00000000      -0.00000000       3.07467930 </v>
   <v>      -0.00000000      -0.00000000      -3.07467930 </v>
   <v>      -0.00000000      -0.00000000       3.07467930 </v>
   <v>      -0.00000000      -0.00000000      -3.07467930 </v>
   <v>      -0.00000000      -0.00000000       3.07467930 </v>
   <v>      -0.00000000      -0.00000000      -3.07467930 </v>
   <v>      -0.00000000      -0.00000000       3.07467930 </v>
   <v>      -0.00000000      -0.00000000      -3.07467930 </v>
   <v>      -0.00000000      -0.00000000      -0.00000000 </v>
   <v>      -0.00000000      -0.00000000      -0.00000000 </v>
   <v>      -0.00000000      -0.00000000      -0.00000000 </v>
   <v>      -0.00000000      -0.00000000      -0.00000000 </v>
   <v>      -0.00000000      -0.00000000      -0.00000000 </v>
   <v>      -0.00000000      -0.00000000      -0.00000000 </v>
   <v>      -0.00000000      -0.00000000      -0.00000000 </v>
   <v>      -0.00000000      -0.00000000      -0.00000000 </v>
   <v>      -0.00000000      -0.00000000      -0.00000000 </v>
   <v>      -0.00000000      -0.00000000      -0.00000000 </v>
   <v>      -0.00000000      -0.00000000      -0.00000000 </v>
   <v>      -0.00000000      -0.00000000      -0.00000000 </v>
   <v>      -0.00000000      -0.00000000      -0.00000000 </v>
   <v>      -0.00000000      -0.00000000      -0.00000000 </v>
   <v>      -0.00000000      -0.00000000      -0.00000000 </v>
   <v>      -0.00000000      -0.00000000      -0.00000000 </v>
   <v>      -0.00000000      -0.00000000      -0.07159655 </v>
   <v>      -0.00000000      -0.00000000       0.07159655 </v>
   <v>      -0.00000000      -0.00000000       0.07159655 </v>
   <v>      -0.00000000      -0.00000000      -0.07159655 </v>
   <v>      -0.00000000      -0.00000000       0.07159655 </v>
   <v>      -0.00000000      -0.00000000      -0.07159655 </v>
   <v>      -0.00000000      -0.00000000      -0.07159655 </v>
   <v>      -0.00000000      -0.00000000       0.07159655 </v>
   <v>      -0.00000000      -0.00000000      -0.00000000 </v>
   <v>      -0.00000000      -0.00000000      -0.00000000 </v>
   <v>      -0.00000000      -0.00000000      -0.00000000 </v>
   <v>      -0.00000000      -0.00000000      -0.00000000 </v>
   <v>      -0.02467047      -0.01749729      -0.11193900 </v>
   <v>       0.01749729      -0.02467047      -0.11193900 </v>
   <v>       0.42599782       0.33176872      -0.90406083 </v>
   <v>      -0.33176872       0.42599782      -0.90406083 </v>
   <v>      -0.01749729       0.02467047      -0.11193900 </v>
   <v>       0.02467047       0.01749729      -0.11193900 </v>
   <v>       0.33176872      -0.42599782      -0.90406083 </v>
   <v>      -0.42599782      -0.33176872      -0.90406083 </v>
   <v>       0.42599782       0.33176872      -0.90406083 </v>
   <v>      -0.33176872       0.42599782      -0.90406083 </v>
   <v>      -0.02467047      -0.01749729      -0.11193900 </v>
   <v>       0.01749729      -0.02467047      -0.11193900 </v>
   <v>       0.33176872      -0.42599782      -0.90406083 </v>
   <v>      -0.42599782      -0.33176872      -0.90406083 </v>
   <v>      -0.01749729       0.02467047      -0.11193900 </v>
   <v>       0.02467047       0.01749729      -0.11193900 </v>
   <v>       0.33176872       0.42599782       0.90406083 </v>
   <v>      -0.42599782       0.33176872       0.90406083 </v>
   <v>      -0.01749729      -0.02467047       0.11193900 </v>
   <v>       0.02467047      -0.01749729       0.11193900 </v>
   <v>       0.42599782      -0.33176872       0.90406083 </v>
   <v>      -0.33176872      -0.42599782       0.90406083 </v>
   <v>      -0.02467047       0.01749729       0.11193900 </v>
   <v>       0.01749729       0.02467047       0.11193900 </v>
   <v>      -0.01749729      -0.02467047       0.11193900 </v>
   <v>       0.02467047      -0.01749729       0.11193900 </v>
   <v>       0.33176872       0.42599782       0.90406083 </v>
   <v>      -0.42599782       0.33176872       0.90406083 </v>
   <v>      -0.02467047       0.01749729       0.11193900 </v>
   <v>       0.01749729       0.02467047       0.11193900 </v>
   <v>       0.42599782      -0.33176872       0.90406083 </v>
   <v>      -0.33176872      -0.42599782       0.90406083 </v>
   <v>       0.42599782       0.33176872      -0.90406083 </v>
   <v>      -0.33176872       0.42599782      -0.90406083 </v>
   <v>      -0.02467047      -0.01749729      -0.11193900 </v>
   <v>       0.01749729      -0.02467047      -0.11193900 </v>
   <v>       0.33176872      -0.42599782      -0.90406083 </v>
   <v>      -0.42599782      -0.33176872      -0.90406083 </v>
   <v>      -0.01749729       0.02467047      -0.11193900 </v>
   <v>       0.02467047       0.01749729      -0.11193900 </v>
   <v>      -0.02467047      -0.01749729      -0.11193900 </v>
   <v>       0.01749729      -0.02467047      -0.11193900 </v>
   <v>       0.42599782       0.33176872      -0.90406083 </v>
   <v>      -0.33176872       0.42599782      -0.90406083 </v>
   <v>      -0.01749729       0.02467047      -0.11193900 </v>
   <v>       0.02467047       0.01749729      -0.11193900 </v>
   <v>       0.33176872      -0.42599782      -0.90406083 </v>
   <v>      -0.42599782      -0.33176872      -0.90406083 </v>
   <v>      -0.01749729      -0.02467047       0.11193900 </v>
   <v>       0.02467047      -0.01749729       0.11193900 </v>
   <v>       0.33176872       0.42599782       0.90406083 </v>
   <v>      -0.42599782       0.33176872       0.90406083 </v>
   <v>      -0.02467047       0.01749729       0.11193900 </v>
   <v>       0.01749729       0.02467047       0.11193900 </v>
   <v>       0.42599782      -0.33176872       0.90406083 </v>
   <v>      -0.33176872      -0.42599782       0.90406083 </v>
   <v>       0.33176872       0.42599782       0.90406083 </v>
   <v>      -0.42599782       0.33176872       0.90406083 </v>
   <v>      -0.01749729      -0.02467047       0.11193900 </v>
   <v>       0.02467047      -0.01749729       0.11193900 </v>
   <v>       0.42599782      -0.33176872       0.90406083 </v>
   <v>      -0.33176872      -0.42599782       0.90406083 </v>
   <v>      -0.02467047       0.01749729       0.11193900 </v>
   <v>       0.01749729       0.02467047       0.11193900 </v>
  </varray>
  <varray name="stress" >
   <v>      -4.47832173       0.00000000       0.00000000 </v>
   <v>       0.00000000      -4.47832173       0.00000000 </v>
   <v>       0.00000000       0.00000000     -22.82066629 </v>
  </varray>
  <energy>
   <i name="e_fr_energy">  -1116.35766158 </i>
   <i name="e_wo_entrp">  -1116.35766158 </i>
   <i name="e_0_energy">     -0.00000000 </i>
  </energy>
  <time name="totalsc">  922.41  924.44</time>
 </calculation>
 <calculation>
  <scstep>
   <time name="dav">   79.89   79.89</time>
   <time name="total">   81.90   81.93</time>
   <energy>
    <i name="alphaZ">   5699.75896788 </i>
    <i name="ewald"> -61929.18169027 </i>
    <i name="hartreedc"> -15931.30112602 </i>
    <i name="XCdc">   3017.25217213 </i>
    <i name="pawpsdc"> 110946.40569106 </i>
    <i name="pawaedc">-109845.44954259 </i>
    <i name="eentropy">     -0.00000000 </i>
    <i name="bandstr">  -6804.39350616 </i>
    <i name="atom">  73783.44779670 </i>
    <i name="e_fr_energy">  -1063.46123729 </i>
    <i name="e_wo_entrp">  -1063.46123729 </i>
    <i name="e_0_energy">  -1063.46123729 </i>
   </energy>
  </scstep>
  <scstep>
   <time name="diag">    8.34    8.34</time>
   <time name="diis">   13.58   13.59</time>
   <time name="orth">    4.77    4.77</time>
   <time name="total">   28.74   28.76</time>
   <energy>
    <i name="e_fr_energy">  -1119.41226558 </i>
    <i name="e_wo_entrp">  -1119.41226558 </i>
    <i name="e_0_energy">  -1119.41226558 </i>
   </energy>
  </scstep>
  <scstep>
   <time name="diag">    8.38    8.38</time>
   <time name="diis">   13.55   13.56</time>
   <time name="orth">    4.74    4.74</time>
   <time name="total">   28.72   28.79</time>
   <energy>
    <i name="e_fr_energy">  -1119.98957146 </i>
    <i name="e_wo_entrp">  -1119.98957146 </i>
    <i name="e_0_energy">  -1119.98957146 </i>
   </energy>
  </scstep>
  <scstep>
   <time name="diag">    8.36    8.36</time>
   <time name="diis">   13.70   13.71</time>
   <time name="orth">    4.80    4.80</time>
   <time name="total">   28.89   28.91</time>
   <energy>
    <i name="e_fr_energy">  -1119.80101795 </i>
    <i name="e_wo_entrp">  -1119.80101795 </i>
    <i name="e_0_energy">  -1119.80101795 </i>
   </energy>
  </scstep>
  <scstep>
   <time name="diag">    8.33    8.33</time>
   <time name="diis">   14.06   14.06</time>
   <time name="orth">    4.74    4.74</time>
   <time name="total">   29.17   29.20</time>
   <energy>
    <i name="e_fr_energy">  -1119.74763842 </i>
    <i name="e_wo_entrp">  -1119.74763842 </i>
    <i name="e_0_energy">  -1119.74763842 </i>
   </energy>
  </scstep>
  <scstep>
   <time name="diag">    8.34    8.34</time>
   <time name="diis">   14.99   15.01</time>
   <time name="orth">    4.76    4.76</time>
   <time name="total">   30.12   30.19</time>
   <energy>
    <i name="e_fr_energy">  -1119.74120619 </i>
    <i name="e_wo_entrp">  -1119.74120619 </i>
    <i name="e_0_energy">  -1119.74120619 </i>
   </energy>
  </scstep>
  <scstep>
   <time name="diag">    8.33    8.34</time>
   <time name="diis">   16.45   16.46</time>
   <time name="orth">    4.76    4.76</time>
   <time name="total">   31.57   31.67</time>
   <energy>
    <i name="e_fr_energy">  -1119.74814829 </i>
    <i name="e_wo_entrp">  -1119.74814829 </i>
    <i name="e_0_energy">  -1119.74814829 </i>
   </energy>
  </scstep>
  <scstep>
   <time name="diag">    8.34    8.34</time>
   <time name="diis">   18.71   18.71</time>
   <time name="orth">    4.75    4.75</time>
   <time name="total">   33.83   33.87</time>
   <energy>
    <i name="e_fr_energy">  -1119.74865427 </i>
    <i name="e_wo_entrp">  -1119.74865427 </i>
    <i name="e_0_energy">  -1119.74865427 </i>
   </energy>
  </scstep>
  <scstep>
   <time name="diag">    8.35    8.36</time>
   <time name="diis">   15.89   15.90</time>
   <time name="orth">    4.75    4.76</time>
   <time name="total">   31.02   31.09</time>
   <energy>
    <i name="e_fr_energy">  -1119.74759569 </i>
    <i name="e_wo_entrp">  -1119.74759569 </i>
    <i name="e_0_energy">  -1119.74759569 </i>
   </energy>
  </scstep>
  <scstep>
   <time name="diag">    8.34    8.35</time>
   <time name="diis">   14.43   14.43</time>
   <time name="orth">    4.76    4.76</time>
   <time name="total">   29.55   29.56</time>
   <energy>
    <i name="e_fr_energy">  -1119.74757143 </i>
    <i name="e_wo_entrp">  -1119.74757143 </i>
    <i name="e_0_energy">  -1119.74757143 </i>
   </energy>
  </scstep>
  <scstep>
   <time name="diag">    8.34    8.36</time>
   <time name="diis">   11.53   11.54</time>
   <time name="orth">    4.76    4.75</time>
   <time name="total">   25.22   25.24</time>
   <energy>
    <i name="alphaZ">   5699.75896788 </i>
    <i name="ewald"> -61929.18169027 </i>
    <i name="hartreedc"> -15763.29406268 </i>
    <i name="XCdc">   2966.99746605 </i>
    <i name="pawpsdc"> 114191.70369109 </i>
    <i name="pawaedc">-113092.67792942 </i>
    <i name="eentropy">     -0.00000000 </i>
    <i name="bandstr">  -6976.50181558 </i>
    <i name="atom">  73783.44779670 </i>
    <i name="e_fr_energy">  -1119.74757624 </i>
    <i name="e_wo_entrp">  -1119.74757624 </i>
    <i name="e_0_energy">  -1119.74757624 </i>
   </energy>
  </scstep>
  <structure>
   <crystal>
    <varray name="basis" >
     <v>      11.17959528       0.00000000       0.00000000 </v>
     <v>       0.00000000      11.17959528       0.00000000 </v>
     <v>       0.00000000       0.00000000      15.84187647 </v>
    </varray>
    <i name="volume">   1979.97080253 </i>
    <varray name="rec_basis" >
     <v>       0.08944868       0.00000000       0.00000000 </v>
     <v>       0.00000000       0.08944868       0.00000000 </v>
     <v>       0.00000000      -0.00000000       0.06312384 </v>
    </varray>
   </crystal>
   <varray name="positions" >
    <v>       0.00350134       0.25000000       0.12500000 </v>
    <v>      -0.00350134       0.25000000       0.62500000 </v>
    <v>      -0.00350134       0.75000000       0.12500000 </v>
    <v>       0.00350134       0.75000000       0.62500000 </v>
    <v>       0.49649866       0.25000000       0.12500000 </v>
    <v>       0.50350134       0.25000000       0.62500000 </v>
    <v>       0.50350134       0.75000000       0.12500000 </v>
    <v>       0.49649866       0.75000000       0.62500000 </v>
    <v>      -0.00000000       0.24985483       0.37500000 </v>
    <v>      -0.00000000       0.25014517       0.87500000 </v>
    <v>      -0.00000000       0.75014517       0.37500000 </v>
    <v>      -0.00000000       0.74985483       0.87500000 </v>
    <v>       0.50000000       0.25014517       0.37500000 </v>
    <v>       0.50000000       0.24985483       0.87500000 </v>
    <v>       0.50000000       0.74985483       0.37500000 </v>
    <v>       0.50000000       0.75014517       0.87500000 </v>
    <v>       0.25000000       0.00350134       0.12500000 </v>
    <v>       0.25000000      -0.00350134       0.62500000 </v>
    <v>       0.25000000       0.49649866       0.12500000 </v>
    <v>       0.25000000       0.50350134       0.62500000 </v>
    <v>       0.75000000      -0.00350134       0.12500000 </v>
    <v>       0.75000000       0.00350134       0.62500000 </v>
    <v>       0.75000000       0.50350134       0.12500000 </v>
    <v>       0.75000000       0.49649866       0.62500000 </v>
    <v>       0.25014517      -0.00000000       0.37500000 </v>
    <v>       0.24985483      -0.00000000       0.87500000 </v>
    <v>       0.24985483       0.50000000       0.37500000 </v>
    <v>       0.25014517       0.50000000       0.87500000 </v>
    <v>       0.74985483      -0.00000000       0.37500000 </v>
    <v>       0.75014517      -0.00000000       0.87500000 </v>
    <v>       0.75014517       0.50000000       0.37500000 </v>
    <v>       0.74985483       0.50000000       0.87500000 </v>
    <v>      -0.00000000      -0.00000000       0.00006135 </v>
    <v>      -0.00000000      -0.00000000       0.50006135 </v>
    <v>      -0.00000000       0.50000000       0.00006135 </v>
    <v>      -0.00000000       0.50000000       0.50006135 </v>
    <v>       0.50000000      -0.00000000       0.00006135 </v>
    <v>       0.50000000      -0.00000000       0.50006135 </v>
    <v>       0.50000000       0.50000000       0.00006135 </v>
    <v>       0.50000000       0.50000000       0.50006135 </v>
    <v>       0.25000000       0.25000000      -0.00171030 </v>
    <v>       0.25000000       0.75000000       0.49828970 </v>
    <v>       0.75000000       0.25000000       0.49828970 </v>
    <v>       0.75000000       0.75000000      -0.00171030 </v>
    <v>       0.25000000       0.25000000       0.25171030 </v>
    <v>       0.25000000       0.75000000       0.75171030 </v>
    <v>       0.75000000       0.25000000       0.75171030 </v>
    <v>       0.75000000       0.75000000       0.25171030 </v>
    <v>      -0.00000000      -0.00000000       0.24993865 </v>
    <v>      -0.00000000      -0.00000000       0.74993865 </v>
    <v>      -0.00000000       0.50000000       0.24993865 </v>
    <v>      -0.00000000       0.50000000       0.74993865 </v>
    <v>       0.50000000      -0.00000000       0.24993865 </v>
    <v>       0.50000000      -0.00000000       0.74993865 </v>
    <v>       0.50000000       0.50000000       0.24993865 </v>
    <v>       0.50000000       0.50000000       0.74993865 </v>
    <v>       0.75000000       0.25000000       0.25928053 </v>
    <v>       0.75000000       0.25000000      -0.00928053 </v>
    <v>       0.25000000       0.75000000       0.25928053 </v>
    <v>       0.25000000       0.75000000      -0.00928053 </v>
    <v>       0.25000000       0.25000000       0.75928053 </v>
    <v>       0.25000000       0.25000000       0.49071947 </v>
    <v>       0.75000000       0.75000000       0.75928053 </v>
    <v>       0.75000000       0.75000000       0.49071947 </v>
    <v>      -0.00000000      -0.00000000       0.12500000 </v>
    <v>      -0.00000000      -0.00000000       0.62500000 </v>
    <v>      -0.00000000       0.50000000       0.12500000 </v>
    <v>      -0.00000000       0.50000000       0.62500000 </v>
    <v>       0.50000000      -0.00000000       0.12500000 </v>
    <v>       0.50000000      -0.00000000       0.62500000 </v>
    <v>       0.50000000       0.50000000       0.12500000 </v>
    <v>       0.50000000       0.50000000       0.62500000 </v>
    <v>      -0.00000000      -0.00000000       0.37500000 </v>
    <v>      -0.00000000      -0.00000000       0.87500000 </v>
    <v>      -0.00000000       0.50000000       0.37500000 </v>
    <v>      -0.00000000       0.50000000       0.87500000 </v>
    <v>       0.50000000      -0.00000000       0.37500000 </v>
    <v>       0.50000000      -0.00000000       0.87500000 </v>
    <v>       0.50000000       0.50000000       0.37500000 </v>
    <v>       0.50000000       0.50000000       0.87500000 </v>
    <v>       0.25000000       0.25000000       0.37478389 </v>
    <v>       0.25000000       0.25000000       0.87521611 </v>
    <v>       0.25000000       0.75000000       0.37521611 </v>
    <v>       0.25000000       0.75000000       0.87478389 </v>
    <v>       0.75000000       0.25000000       0.37521611 </v>
    <v>       0.75000000       0.25000000       0.87478389 </v>
    <v>       0.75000000       0.75000000       0.37478389 </v>
    <v>       0.75000000       0.75000000       0.87521611 </v>
    <v>       0.25000000       0.25000000       0.12500000 </v>
    <v>       0.25000000       0.75000000       0.62500000 </v>
    <v>       0.75000000       0.25000000       0.62500000 </v>
    <v>       0.75000000       0.75000000       0.12500000 </v>
    <v>       0.10889373       0.14092463       0.24966213 </v>
    <v>       0.35907537       0.10889373       0.24966213 </v>
    <v>       0.61083510       0.14242918       0.24727121 </v>
    <v>       0.85757082       0.11083510       0.24727121 </v>
    <v>       0.14092463       0.39110627       0.24966213 </v>
    <v>       0.39110627       0.35907537       0.24966213 </v>
    <v>       0.64242918       0.38916490       0.24727121 </v>
    <v>       0.88916490       0.35757082       0.24727121 </v>
    <v>       0.11083510       0.64242918       0.24727121 </v>
    <v>       0.35757082       0.61083510       0.24727121 </v>
    <v>       0.60889373       0.64092463       0.24966213 </v>
    <v>       0.85907537       0.60889373       0.24966213 </v>
    <v>       0.14242918       0.88916490       0.24727121 </v>
    <v>       0.38916490       0.85757082       0.24727121 </v>
    <v>       0.64092463       0.89110627       0.24966213 </v>
    <v>       0.89110627       0.85907537       0.24966213 </v>
    <v>       0.14242918       0.11083510       0.50272879 </v>
    <v>       0.38916490       0.14242918       0.50272879 </v>
    <v>       0.64092463       0.10889373       0.50033787 </v>
    <v>       0.89110627       0.14092463       0.50033787 </v>
    <v>       0.11083510       0.35757082       0.50272879 </v>
    <v>       0.35757082       0.38916490       0.50272879 </v>
    <v>       0.60889373       0.35907537       0.50033787 </v>
    <v>       0.85907537       0.39110627       0.50033787 </v>
    <v>       0.14092463       0.60889373       0.50033787 </v>
    <v>       0.39110627       0.64092463       0.50033787 </v>
    <v>       0.64242918       0.61083510       0.50272879 </v>
    <v>       0.88916490       0.64242918       0.50272879 </v>
    <v>       0.10889373       0.85907537       0.50033787 </v>
    <v>       0.35907537       0.89110627       0.50033787 </v>
    <v>       0.61083510       0.85757082       0.50272879 </v>
    <v>       0.85757082       0.88916490       0.50272879 </v>
    <v>       0.11083510       0.14242918       0.74727121 </v>
    <v>       0.35757082       0.11083510       0.74727121 </v>
    <v>       0.60889373       0.14092463       0.74966213 </v>
    <v>       0.85907537       0.10889373       0.74966213 </v>
    <v>       0.14242918       0.38916490       0.74727121 </v>
    <v>       0.38916490       0.35757082       0.74727121 </v>
    <v>       0.64092463       0.39110627       0.74966213 </v>
    <v>       0.89110627       0.35907537       0.74966213 </v>
    <v>       0.10889373       0.64092463       0.74966213 </v>
    <v>       0.35907537       0.60889373       0.74966213 </v>
    <v>       0.61083510       0.64242918       0.74727121 </v>
    <v>       0.85757082       0.61083510       0.74727121 </v>
    <v>       0.14092463       0.89110627       0.74966213 </v>
    <v>       0.39110627       0.85907537       0.74966213 </v>
    <v>       0.64242918       0.88916490       0.74727121 </v>
    <v>       0.88916490       0.85757082       0.74727121 </v>
    <v>       0.14092463       0.10889373       0.00033787 </v>
    <v>       0.39110627       0.14092463       0.00033787 </v>
    <v>       0.64242918       0.11083510       0.00272879 </v>
    <v>       0.88916490       0.14242918       0.00272879 </v>
    <v>       0.10889373       0.35907537       0.00033787 </v>
    <v>       0.35907537       0.39110627       0.00033787 </v>
    <v>       0.61083510       0.35757082       0.00272879 </v>
[...]
       <r>   -16.2124     0.0000    32.0000 </r>
       <r>   -16.0601     0.0000    32.0000 </r>
       <r>   -15.9078     0.0000    32.0000 </r>
       <r>   -15.7555     0.0000    32.0000 </r>
       <r>   -15.6032     0.0000    32.0000 </r>
       <r>   -15.4509     0.0000    32.0000 </r>
       <r>   -15.2985     0.0000    32.0000 </r>
       <r>   -15.1462     1.3206    32.2011 </r>
       <r>   -14.9939    25.4884    36.0832 </r>
       <r>   -14.8416    43.5989    42.7236 </r>
       <r>   -14.6893    44.7671    49.5419 </r>
       <r>   -14.5370    34.9692    54.8680 </r>
       <r>   -14.3847    32.9876    59.8922 </r>
       <r>   -14.2324    33.9092    65.0568 </r>
       <r>   -14.0801    94.9402    79.5169 </r>
       <r>   -13.9278   128.1435    99.0340 </r>
       <r>   -13.7755    95.4134   113.5661 </r>
       <r>   -13.6232    42.7501   120.0773 </r>
       <r>   -13.4709    25.6101   123.9779 </r>
       <r>   -13.3186     0.1454   124.0000 </r>
       <r>   -13.1663     0.0000   124.0000 </r>
       <r>   -13.0139     0.0000   124.0000 </r>
       <r>   -12.8616     0.0000   124.0000 </r>
       <r>   -12.7093     2.4828   124.3781 </r>
       <r>   -12.5570    71.2073   135.2235 </r>
       <r>   -12.4047   144.9751   157.3042 </r>
       <r>   -12.2524   126.6898   176.5999 </r>
       <r>   -12.1001   121.9669   195.1763 </r>
       <r>   -11.9478    99.7315   210.3661 </r>
       <r>   -11.7955    59.7035   219.4594 </r>
       <r>   -11.6432     3.5496   220.0000 </r>
       <r>   -11.4909     0.0000   220.0000 </r>
       <r>   -11.3386     0.0000   220.0000 </r>
       <r>   -11.1863     0.0000   220.0000 </r>
       <r>   -11.0340     0.0000   220.0000 </r>
       <r>   -10.8816     0.0000   220.0000 </r>
       <r>   -10.7293     0.0000   220.0000 </r>
       <r>   -10.5770     0.0000   220.0000 </r>
       <r>   -10.4247     0.0000   220.0000 </r>
       <r>   -10.2724     0.0000   220.0000 </r>
       <r>   -10.1201     0.0000   220.0000 </r>
       <r>    -9.9678     0.0000   220.0000 </r>
       <r>    -9.8155     0.0000   220.0000 </r>
       <r>    -9.6632     0.0000   220.0000 </r>
       <r>    -9.5109     0.0000   220.0000 </r>
       <r>    -9.3586     0.0000   220.0000 </r>
       <r>    -9.2063     0.0000   220.0000 </r>
       <r>    -9.0540     0.0000   220.0000 </r>
       <r>    -8.9017     0.0000   220.0000 </r>
       <r>    -8.7494     0.0000   220.0000 </r>
       <r>    -8.5970     0.0000   220.0000 </r>
       <r>    -8.4447     0.0000   220.0000 </r>
       <r>    -8.2924     0.0000   220.0000 </r>
       <r>    -8.1401     0.0000   220.0000 </r>
       <r>    -7.9878     0.0000   220.0000 </r>
       <r>    -7.8355     0.0000   220.0000 </r>
       <r>    -7.6832     0.0000   220.0000 </r>
       <r>    -7.5309     0.0000   220.0000 </r>
       <r>    -7.3786     0.0000   220.0000 </r>
       <r>    -7.2263     0.0000   220.0000 </r>
       <r>    -7.0740     0.0000   220.0000 </r>
       <r>    -6.9217     0.0000   220.0000 </r>
       <r>    -6.7694     0.0000   220.0000 </r>
       <r>    -6.6171     0.0000   220.0000 </r>
       <r>    -6.4648     0.0000   220.0000 </r>
       <r>    -6.3124     0.0000   220.0000 </r>
       <r>    -6.1601     0.0000   220.0000 </r>
       <r>    -6.0078     0.0000   220.0000 </r>
       <r>    -5.8555     0.0000   220.0000 </r>
       <r>    -5.7032     0.0000   220.0000 </r>
       <r>    -5.5509     0.0000   220.0000 </r>
       <r>    -5.3986     0.0000   220.0000 </r>
       <r>    -5.2463     0.0000   220.0000 </r>
       <r>    -5.0940     0.0000   220.0000 </r>
       <r>    -4.9417     0.0000   220.0000 </r>
       <r>    -4.7894     0.0000   220.0000 </r>
       <r>    -4.6371     0.0000   220.0000 </r>
       <r>    -4.4848     0.0000   220.0000 </r>
       <r>    -4.3325     0.0000   220.0000 </r>
       <r>    -4.1801     0.0000   220.0000 </r>
       <r>    -4.0278     0.0000   220.0000 </r>
       <r>    -3.8755     0.0000   220.0000 </r>
       <r>    -3.7232     0.0000   220.0000 </r>
       <r>    -3.5709     0.0000   220.0000 </r>
       <r>    -3.4186     0.0000   220.0000 </r>
       <r>    -3.2663     0.0000   220.0000 </r>
       <r>    -3.1140     0.0000   220.0000 </r>
       <r>    -2.9617     0.0000   220.0000 </r>
       <r>    -2.8094     0.0000   220.0000 </r>
       <r>    -2.6571     0.0000   220.0000 </r>
       <r>    -2.5048     0.0000   220.0000 </r>
       <r>    -2.3525     0.0456   220.0069 </r>
       <r>    -2.2002    11.2999   221.7280 </r>
       <r>    -2.0479    27.3535   225.8941 </r>
       <r>    -1.8955    36.8192   231.5019 </r>
       <r>    -1.7432    42.5821   237.9875 </r>
       <r>    -1.5909    54.1407   246.2335 </r>
       <r>    -1.4386    47.6038   253.4839 </r>
       <r>    -1.2863    58.0041   262.3183 </r>
       <r>    -1.1340    60.0402   271.4628 </r>
       <r>    -0.9817    85.7013   284.5157 </r>
       <r>    -0.8294    75.5197   296.0179 </r>
       <r>    -0.6771    84.7757   308.9298 </r>
       <r>    -0.5248    98.5506   323.9397 </r>
       <r>    -0.3725   105.6986   340.0383 </r>
       <r>    -0.2202    72.4344   351.0706 </r>
       <r>    -0.0679    54.7379   359.4075 </r>
       <r>     0.0844    39.0482   365.3549 </r>
       <r>     0.2367    45.1955   372.2384 </r>
       <r>     0.3891    49.5627   379.7872 </r>
       <r>     0.5414    54.5557   388.0964 </r>
       <r>     0.6937    63.1512   397.7148 </r>
       <r>     0.8460    44.1147   404.4337 </r>
       <r>     0.9983    54.4693   412.7298 </r>
       <r>     1.1506    68.6018   423.1783 </r>
       <r>     1.3029    73.4261   434.3616 </r>
       <r>     1.4552    76.7711   446.0544 </r>
       <r>     1.6075    82.9535   458.6887 </r>
       <r>     1.7598    92.3432   472.7532 </r>
       <r>     1.9121    49.8438   480.3448 </r>
       <r>     2.0644    59.0914   489.3448 </r>
       <r>     2.2167    29.3461   493.8144 </r>
       <r>     2.3690    14.3290   495.9968 </r>
       <r>     2.5214     0.0208   496.0000 </r>
       <r>     2.6737     0.0000   496.0000 </r>
       <r>     2.8260     0.0000   496.0000 </r>
       <r>     2.9783     0.0000   496.0000 </r>
       <r>     3.1306     0.0000   496.0000 </r>
       <r>     3.2829     0.0000   496.0000 </r>
       <r>     3.4352     0.0000   496.0000 </r>
       <r>     3.5875     0.0000   496.0000 </r>
       <r>     3.7398     0.0000   496.0000 </r>
       <r>     3.8921     0.0000   496.0000 </r>
       <r>     4.0444     0.0000   496.0000 </r>
       <r>     4.1967     0.0000   496.0000 </r>
       <r>     4.3490     0.0134   496.0020 </r>
       <r>     4.5013    20.0933   499.0624 </r>
       <r>     4.6536    29.2241   503.5134 </r>
       <r>     4.8060    31.3085   508.2819 </r>
       <r>     4.9583    53.4703   516.4258 </r>
       <r>     5.1106    45.1648   523.3047 </r>
       <r>     5.2629    16.2234   525.7757 </r>
       <r>     5.4152    70.1772   536.4641 </r>
       <r>     5.5675    63.7004   546.1661 </r>
       <r>     5.7198    63.0140   555.7636 </r>
       <r>     5.8721    81.7165   568.2096 </r>
       <r>     6.0244    95.3079   582.7256 </r>
       <r>     6.1767    83.6454   595.4654 </r>
       <r>     6.3290    61.7368   604.8683 </r>
       <r>     6.4813    39.7143   610.9171 </r>
       <r>     6.6336    29.5097   615.4116 </r>
       <r>     6.7859     8.0676   616.6404 </r>
       <r>     6.9382    18.8321   619.5086 </r>
       <r>     7.0906    21.2823   622.7501 </r>
       <r>     7.2429    24.0448   626.4123 </r>
       <r>     7.3952    16.7847   628.9687 </r>
       <r>     7.5475    22.3880   632.3785 </r>
       <r>     7.6998     4.6045   633.0798 </r>
       <r>     7.8521    19.2043   636.0048 </r>
       <r>     8.0044    18.5139   638.8246 </r>
       <r>     8.1567    32.3317   643.7489 </r>
       <r>     8.3090    27.7837   647.9805 </r>
       <r>     8.4613    17.6765   650.6728 </r>
       <r>     8.6136    21.2749   653.9131 </r>
       <r>     8.7659    32.1986   658.8172 </r>
       <r>     8.9182    29.3714   663.2906 </r>
       <r>     9.0705    34.1532   668.4924 </r>
       <r>     9.2229    30.6694   673.1635 </r>
       <r>     9.3752    45.6824   680.1213 </r>
       <r>     9.5275    37.3752   685.8138 </r>
       <r>     9.6798    40.7543   692.0209 </r>
       <r>     9.8321    54.1995   700.2759 </r>
       <r>     9.9844    67.2297   710.5154 </r>
       <r>    10.1367    56.7494   719.1588 </r>
       <r>    10.2890    78.3343   731.0896 </r>
       <r>    10.4413    63.2122   740.7173 </r>
       <r>    10.5936    60.1176   749.8736 </r>
       <r>    10.7459    50.0579   757.4977 </r>
       <r>    10.8982    55.0117   765.8764 </r>
       <r>    11.0505    13.9222   767.9968 </r>
       <r>    11.2028     0.0207   768.0000 </r>
       <r>    11.3551     0.0000   768.0000 </r>
       <r>    11.5075     0.0000   768.0000 </r>
       <r>    11.6598     0.0000   768.0000 </r>
       <r>    11.8121     0.0000   768.0000 </r>
       <r>    11.9644     0.0000   768.0000 </r>
       <r>    12.1167     0.0000   768.0000 </r>
       <r>    12.2690     0.0000   768.0000 </r>
       <r>    12.4213     0.0000   768.0000 </r>
       <r>    12.5736     0.0000   768.0000 </r>
       <r>    12.7259     0.0000   768.0000 </r>
       <r>    12.8782     0.0000   768.0000 </r>
       <r>    13.0305     0.0000   768.0000 </r>
      </set>
     </set>
    </array>
   </total>
  </dos>
 </calculation>
 <structure name="finalpos" >
  <crystal>
   <varray name="basis" >
    <v>      11.18058629       0.00000000       0.00000000 </v>
    <v>       0.00000000      11.18058629      -0.00000000 </v>
    <v>       0.00000000       0.00000000      15.98632799 </v>
   </varray>
   <i name="volume">   1998.37907877 </i>
   <varray name="rec_basis" >
    <v>       0.08944075       0.00000000       0.00000000 </v>
    <v>       0.00000000       0.08944075      -0.00000000 </v>
    <v>       0.00000000       0.00000000       0.06255345 </v>
   </varray>
  </crystal>
  <varray name="positions" >
   <v>       0.00421843       0.25000000       0.12500000 </v>
   <v>      -0.00421843       0.25000000       0.62500000 </v>
   <v>      -0.00421843       0.75000000       0.12500000 </v>
   <v>       0.00421843       0.75000000       0.62500000 </v>
   <v>       0.49578157       0.25000000       0.12500000 </v>
   <v>       0.50421843       0.25000000       0.62500000 </v>
   <v>       0.50421843       0.75000000       0.12500000 </v>
   <v>       0.49578157       0.75000000       0.62500000 </v>
   <v>      -0.00000000       0.25155859       0.37500000 </v>
   <v>      -0.00000000       0.24844141       0.87500000 </v>
   <v>      -0.00000000       0.74844141       0.37500000 </v>
   <v>      -0.00000000       0.75155859       0.87500000 </v>
   <v>       0.50000000       0.24844141       0.37500000 </v>
   <v>       0.50000000       0.25155859       0.87500000 </v>
   <v>       0.50000000       0.75155859       0.37500000 </v>
   <v>       0.50000000       0.74844141       0.87500000 </v>
   <v>       0.25000000       0.00421843       0.12500000 </v>
   <v>       0.25000000      -0.00421843       0.62500000 </v>
   <v>       0.25000000       0.49578157       0.12500000 </v>
   <v>       0.25000000       0.50421843       0.62500000 </v>
   <v>       0.75000000      -0.00421843       0.12500000 </v>
   <v>       0.75000000       0.00421843       0.62500000 </v>
   <v>       0.75000000       0.50421843       0.12500000 </v>
   <v>       0.75000000       0.49578157       0.62500000 </v>
   <v>       0.24844141       0.00000000       0.37500000 </v>
   <v>       0.25155859       0.00000000       0.87500000 </v>
   <v>       0.25155859       0.50000000       0.37500000 </v>
   <v>       0.24844141       0.50000000       0.87500000 </v>
   <v>       0.75155859       0.00000000       0.37500000 </v>
   <v>       0.74844141       0.00000000       0.87500000 </v>
   <v>       0.74844141       0.50000000       0.37500000 </v>
   <v>       0.75155859       0.50000000       0.87500000 </v>
   <v>      -0.00000000       0.00000000       0.00156716 </v>
   <v>      -0.00000000       0.00000000       0.50156716 </v>
   <v>      -0.00000000       0.50000000       0.00156716 </v>
   <v>      -0.00000000       0.50000000       0.50156716 </v>
   <v>       0.50000000       0.00000000       0.00156716 </v>
   <v>       0.50000000       0.00000000       0.50156716 </v>
   <v>       0.50000000       0.50000000       0.00156716 </v>
   <v>       0.50000000       0.50000000       0.50156716 </v>
   <v>       0.25000000       0.25000000       0.00028019 </v>
   <v>       0.25000000       0.75000000       0.50028019 </v>
   <v>       0.75000000       0.25000000       0.50028019 </v>
   <v>       0.75000000       0.75000000       0.00028019 </v>
   <v>       0.25000000       0.25000000       0.24971981 </v>
   <v>       0.25000000       0.75000000       0.74971981 </v>
   <v>       0.75000000       0.25000000       0.74971981 </v>
   <v>       0.75000000       0.75000000       0.24971981 </v>
   <v>      -0.00000000       0.00000000       0.24843284 </v>
   <v>      -0.00000000       0.00000000       0.74843284 </v>
   <v>      -0.00000000       0.50000000       0.24843284 </v>
   <v>      -0.00000000       0.50000000       0.74843284 </v>
   <v>       0.50000000       0.00000000       0.24843284 </v>
   <v>       0.50000000       0.00000000       0.74843284 </v>
   <v>       0.50000000       0.50000000       0.24843284 </v>
   <v>       0.50000000       0.50000000       0.74843284 </v>
   <v>       0.75000000       0.25000000       0.26040973 </v>
   <v>       0.75000000       0.25000000      -0.01040973 </v>
   <v>       0.25000000       0.75000000       0.26040973 </v>
   <v>       0.25000000       0.75000000      -0.01040973 </v>
   <v>       0.25000000       0.25000000       0.76040973 </v>
   <v>       0.25000000       0.25000000       0.48959027 </v>
   <v>       0.75000000       0.75000000       0.76040973 </v>
   <v>       0.75000000       0.75000000       0.48959027 </v>
   <v>      -0.00000000       0.00000000       0.12500000 </v>
   <v>      -0.00000000       0.00000000       0.62500000 </v>
   <v>      -0.00000000       0.50000000       0.12500000 </v>
   <v>      -0.00000000       0.50000000       0.62500000 </v>
   <v>       0.50000000       0.00000000       0.12500000 </v>
   <v>       0.50000000       0.00000000       0.62500000 </v>
   <v>       0.50000000       0.50000000       0.12500000 </v>
   <v>       0.50000000       0.50000000       0.62500000 </v>
   <v>      -0.00000000       0.00000000       0.37500000 </v>
   <v>      -0.00000000       0.00000000       0.87500000 </v>
   <v>      -0.00000000       0.50000000       0.37500000 </v>
   <v>      -0.00000000       0.50000000       0.87500000 </v>
   <v>       0.50000000       0.00000000       0.37500000 </v>
   <v>       0.50000000       0.00000000       0.87500000 </v>
   <v>       0.50000000       0.50000000       0.37500000 </v>
   <v>       0.50000000       0.50000000       0.87500000 </v>
   <v>       0.25000000       0.25000000       0.37230419 </v>
   <v>       0.25000000       0.25000000       0.87769581 </v>
   <v>       0.25000000       0.75000000       0.37769581 </v>
   <v>       0.25000000       0.75000000       0.87230419 </v>
   <v>       0.75000000       0.25000000       0.37769581 </v>
   <v>       0.75000000       0.25000000       0.87230419 </v>
   <v>       0.75000000       0.75000000       0.37230419 </v>
   <v>       0.75000000       0.75000000       0.87769581 </v>
   <v>       0.25000000       0.25000000       0.12500000 </v>
   <v>       0.25000000       0.75000000       0.62500000 </v>
   <v>       0.75000000       0.25000000       0.62500000 </v>
   <v>       0.75000000       0.75000000       0.12500000 </v>
   <v>       0.11050408       0.13969030       0.25019157 </v>
   <v>       0.36030970       0.11050408       0.25019157 </v>
   <v>       0.61224341       0.14095197       0.24246927 </v>
   <v>       0.85904803       0.11224341       0.24246927 </v>
   <v>       0.13969030       0.38949592       0.25019157 </v>
   <v>       0.38949592       0.36030970       0.25019157 </v>
   <v>       0.64095197       0.38775659       0.24246927 </v>
   <v>       0.88775659       0.35904803       0.24246927 </v>
   <v>       0.11224341       0.64095197       0.24246927 </v>
   <v>       0.35904803       0.61224341       0.24246927 </v>
   <v>       0.61050408       0.63969030       0.25019157 </v>
   <v>       0.86030970       0.61050408       0.25019157 </v>
   <v>       0.14095197       0.88775659       0.24246927 </v>
   <v>       0.38775659       0.85904803       0.24246927 </v>
   <v>       0.63969030       0.88949592       0.25019157 </v>
   <v>       0.88949592       0.86030970       0.25019157 </v>
   <v>       0.14095197       0.11224341       0.50753073 </v>
   <v>       0.38775659       0.14095197       0.50753073 </v>
   <v>       0.63969030       0.11050408       0.49980843 </v>
   <v>       0.88949592       0.13969030       0.49980843 </v>
   <v>       0.11224341       0.35904803       0.50753073 </v>
   <v>       0.35904803       0.38775659       0.50753073 </v>
   <v>       0.61050408       0.36030970       0.49980843 </v>
   <v>       0.86030970       0.38949592       0.49980843 </v>
   <v>       0.13969030       0.61050408       0.49980843 </v>
   <v>       0.38949592       0.63969030       0.49980843 </v>
   <v>       0.64095197       0.61224341       0.50753073 </v>
   <v>       0.88775659       0.64095197       0.50753073 </v>
   <v>       0.11050408       0.86030970       0.49980843 </v>
   <v>       0.36030970       0.88949592       0.49980843 </v>
   <v>       0.61224341       0.85904803       0.50753073 </v>
   <v>       0.85904803       0.88775659       0.50753073 </v>
   <v>       0.11224341       0.14095197       0.74246927 </v>
   <v>       0.35904803       0.11224341       0.74246927 </v>
   <v>       0.61050408       0.13969030       0.75019157 </v>
   <v>       0.86030970       0.11050408       0.75019157 </v>
   <v>       0.14095197       0.38775659       0.74246927 </v>
   <v>       0.38775659       0.35904803       0.74246927 </v>
   <v>       0.63969030       0.38949592       0.75019157 </v>
   <v>       0.88949592       0.36030970       0.75019157 </v>
   <v>       0.11050408       0.63969030       0.75019157 </v>
   <v>       0.36030970       0.61050408       0.75019157 </v>
   <v>       0.61224341       0.64095197       0.74246927 </v>
   <v>       0.85904803       0.61224341       0.74246927 </v>
   <v>       0.13969030       0.88949592       0.75019157 </v>
   <v>       0.38949592       0.86030970       0.75019157 </v>
   <v>       0.64095197       0.88775659       0.74246927 </v>
   <v>       0.88775659       0.85904803       0.74246927 </v>
   <v>       0.13969030       0.11050408      -0.00019157 </v>
   <v>       0.38949592       0.13969030      -0.00019157 </v>
   <v>       0.64095197       0.11224341       0.00753073 </v>
   <v>       0.88775659       0.14095197       0.00753073 </v>
   <v>       0.11050408       0.36030970      -0.00019157 </v>
   <v>       0.36030970       0.38949592      -0.00019157 </v>
   <v>       0.61224341       0.35904803       0.00753073 </v>
   <v>       0.85904803       0.38775659       0.00753073 </v>
   <v>       0.14095197       0.61224341       0.00753073 </v>
   <v>       0.38775659       0.64095197       0.00753073 </v>
   <v>       0.63969030       0.61050408      -0.00019157 </v>
   <v>       0.88949592       0.63969030      -0.00019157 </v>
   <v>       0.11224341       0.85904803       0.00753073 </v>
   <v>       0.35904803       0.88775659       0.00753073 </v>
   <v>       0.61050408       0.86030970      -0.00019157 </v>
   <v>       0.86030970       0.88949592      -0.00019157 </v>
  </varray>
 </structure>
</modeling>
