<?xml version="1.0" encoding="ISO-8859-1"?>
<modeling>
 <generator>
  <i name="program" type="string">vasp </i>
  <i name="version" type="string">5.4.1  </i>
  <i name="subversion" type="string">05Feb16 (build Jan 25 2017 20:16:33) complex                          parallel </i>
  <i name="platform" type="string">BWXE6 </i>
  <i name="date" type="string">2019 06 20 </i>
  <i name="time" type="string">10:41:46 </i>
 </generator>
 <incar>
  <i type="string" name="SYSTEM"> STF</i>
  <i type="string" name="PREC">normal</i>
  <i type="string" name="ALGO"> Fast</i>
  <i type="int" name="ISPIN">     2</i>
  <i type="int" name="NELM">    40</i>
  <i type="int" name="NELMIN">     8</i>
  <i type="int" name="IBRION">     2</i>
  <i name="EDIFF">      0.00010000</i>
  <i name="EDIFFG">     -0.03000000</i>
  <i type="int" name="NSW">    30</i>
  <i type="int" name="ISIF">     3</i>
  <i name="ENCUT">    520.00000000</i>
  <i type="int" name="NBANDS">   768</i>
  <v name="MAGMOM">      0.60000000      0.60000000      0.60000000      0.60000000      0.60000000      0.60000000      0.60000000      0.60000000      0.60000000      0.60000000      0.60000000      0.60000000      0.60000000      0.60000000      0.60000000      0.60000000      0.60000000      0.60000000      0.60000000      0.60000000
      0.60000000      0.60000000      0.60000000      0.60000000      0.60000000      0.60000000      0.60000000      0.60000000      0.60000000      0.60000000      0.60000000      0.60000000      0.60000000      0.60000000      0.60000000      0.60000000      0.60000000      0.60000000      0.60000000      0.60000000
      0.60000000      0.60000000      0.60000000      0.60000000      0.60000000      0.60000000      0.60000000      0.60000000      0.60000000      0.60000000      0.60000000      0.60000000      0.60000000      0.60000000      0.60000000      0.60000000      0.60000000      0.60000000      0.60000000      0.60000000
      5.00000000      5.00000000      5.00000000      5.00000000      0.60000000      0.60000000      0.60000000      0.60000000      0.60000000      0.60000000      0.60000000      0.60000000      0.60000000      0.60000000      0.60000000      0.60000000      0.60000000      0.60000000      0.60000000      0.60000000
      0.60000000      0.60000000      0.60000000      0.60000000      0.60000000      0.60000000      0.60000000      0.60000000      0.60000000      0.60000000      0.60000000      0.60000000      0.60000000      0.60000000      0.60000000      0.60000000      0.60000000      0.60000000      0.60000000      0.60000000
      0.60000000      0.60000000      0.60000000      0.60000000      0.60000000      0.60000000      0.60000000      0.60000000      0.60000000      0.60000000      0.60000000      0.60000000      0.60000000      0.60000000      0.60000000      0.60000000      0.60000000      0.60000000      0.60000000      0.60000000
      0.60000000      0.60000000      0.60000000      0.60000000      0.60000000      0.60000000      0.60000000      0.60000000      0.60000000      0.60000000      0.60000000      0.60000000      0.60000000      0.60000000      0.60000000      0.60000000      0.60000000      0.60000000      0.60000000      0.60000000
      0.60000000      0.60000000      0.60000000      0.60000000      0.60000000      0.60000000      0.60000000      0.60000000      0.60000000      0.60000000      0.60000000      0.60000000      0.60000000      0.60000000      0.60000000      0.60000000      0.60000000      0.60000000</v>
  <i type="string" name="LREAL"> Auto</i>
  <i type="int" name="ISMEAR">     0</i>
  <i name="SIGMA">      0.05000000</i>
  <i type="int" name="LMAXMIX">     4</i>
  <v type="int" name="KPOINT_BSE">    -1     0     0     0</v>
  <i type="int" name="NELM">    40</i>
  <i type="logical" name="LDAU"> T  </i>
  <v type="int" name="LDAUTYPE">     2</v>
  <v type="int" name="LDAUL">     0     2     2     0</v>
  <v name="LDAUU">      0.00000000      3.00000000      5.00000000      0.00000000</v>
  <v name="LDAUJ">      0.00000000      0.00000000      0.00000000      0.00000000</v>
  <i type="int" name="LDAUPRINT">     1</i>
 </incar>
 <kpoints>
  <generation param="Monkhorst-Pack">
   <v type="int" name="divisions">       2        2        2 </v>
   <v name="usershift">      0.00000000       0.00000000       0.00000000 </v>
   <v name="genvec1">      0.50000000       0.00000000       0.00000000 </v>
   <v name="genvec2">     -0.00000000       0.50000000       0.00000000 </v>
   <v name="genvec3">      0.00000000       0.00000000       0.50000000 </v>
   <v name="shift">      0.50000000       0.50000000       0.50000000 </v>
  </generation>
  <varray name="kpointlist" >
   <v>       0.25000000       0.25000000       0.25000000 </v>
   <v>      -0.25000000       0.25000000       0.25000000 </v>
   <v>       0.25000000      -0.25000000       0.25000000 </v>
   <v>      -0.25000000      -0.25000000       0.25000000 </v>
  </varray>
  <varray name="weights" >
   <v>       0.25000000 </v>
   <v>       0.25000000 </v>
   <v>       0.25000000 </v>
   <v>       0.25000000 </v>
  </varray>
 </kpoints>
 <parameters>
  <separator name="general" >
   <i type="string" name="SYSTEM">STF</i>
   <i type="logical" name="LCOMPAT"> F  </i>
  </separator>
  <separator name="electronic" >
   <i type="string" name="PREC">normal</i>
   <i name="ENMAX">    520.00000000</i>
   <i name="ENAUG">    605.39200000</i>
   <i name="EDIFF">      0.00010000</i>
   <i type="int" name="IALGO">    68</i>
   <i type="int" name="IWAVPR">    11</i>
   <i type="int" name="NBANDS">   768</i>
   <i name="NELECT">   1028.00000000</i>
   <i type="int" name="TURBO">     0</i>
   <i type="int" name="IRESTART">     0</i>
   <i type="int" name="NREBOOT">     0</i>
   <i type="int" name="NMIN">     0</i>
   <i name="EREF">      0.00000000</i>
   <separator name="electronic smearing" >
    <i type="int" name="ISMEAR">     0</i>
    <i name="SIGMA">      0.05000000</i>
    <i name="KSPACING">      0.50000000</i>
    <i type="logical" name="KGAMMA"> T  </i>
   </separator>
   <separator name="electronic projectors" >
    <i type="logical" name="LREAL"> T  </i>
    <v name="ROPT">     -0.00050000     -0.00050000     -0.00050000     -0.00050000</v>
    <i type="int" name="LMAXPAW">  -100</i>
    <i type="int" name="LMAXMIX">     4</i>
    <i type="logical" name="NLSPLINE"> F  </i>
   </separator>
   <separator name="electronic startup" >
    <i type="int" name="ISTART">     1</i>
    <i type="int" name="ICHARG">     0</i>
    <i type="int" name="INIWAV">     1</i>
   </separator>
   <separator name="electronic spin" >
    <i type="int" name="ISPIN">     2</i>
    <i type="logical" name="LNONCOLLINEAR"> F  </i>
    <v name="MAGMOM">      0.60000000      0.60000000      0.60000000      0.60000000      0.60000000      0.60000000      0.60000000      0.60000000      0.60000000      0.60000000      0.60000000      0.60000000      0.60000000      0.60000000      0.60000000      0.60000000      0.60000000      0.60000000      0.60000000      0.60000000
      0.60000000      0.60000000      0.60000000      0.60000000      0.60000000      0.60000000      0.60000000      0.60000000      0.60000000      0.60000000      0.60000000      0.60000000      0.60000000      0.60000000      0.60000000      0.60000000      0.60000000      0.60000000      0.60000000      0.60000000
      0.60000000      0.60000000      0.60000000      0.60000000      0.60000000      0.60000000      0.60000000      0.60000000      0.60000000      0.60000000      0.60000000      0.60000000      0.60000000      0.60000000      0.60000000      0.60000000      0.60000000      0.60000000      0.60000000      0.60000000
      5.00000000      5.00000000      5.00000000      5.00000000      0.60000000      0.60000000      0.60000000      0.60000000      0.60000000      0.60000000      0.60000000      0.60000000      0.60000000      0.60000000      0.60000000      0.60000000      0.60000000      0.60000000      0.60000000      0.60000000
      0.60000000      0.60000000      0.60000000      0.60000000      0.60000000      0.60000000      0.60000000      0.60000000      0.60000000      0.60000000      0.60000000      0.60000000      0.60000000      0.60000000      0.60000000      0.60000000      0.60000000      0.60000000      0.60000000      0.60000000
      0.60000000      0.60000000      0.60000000      0.60000000      0.60000000      0.60000000      0.60000000      0.60000000      0.60000000      0.60000000      0.60000000      0.60000000      0.60000000      0.60000000      0.60000000      0.60000000      0.60000000      0.60000000      0.60000000      0.60000000
      0.60000000      0.60000000      0.60000000      0.60000000      0.60000000      0.60000000      0.60000000      0.60000000      0.60000000      0.60000000      0.60000000      0.60000000      0.60000000      0.60000000      0.60000000      0.60000000      0.60000000      0.60000000      0.60000000      0.60000000
      0.60000000      0.60000000      0.60000000      0.60000000      0.60000000      0.60000000      0.60000000      0.60000000      0.60000000      0.60000000      0.60000000      0.60000000      0.60000000      0.60000000      0.60000000      0.60000000      0.60000000      0.60000000</v>
    <i name="NUPDOWN">     -1.00000000</i>
    <i type="logical" name="LSORBIT"> F  </i>
    <v name="SAXIS">      0.00000000      0.00000000      1.00000000</v>
    <i type="logical" name="LSPIRAL"> F  </i>
    <v name="QSPIRAL">      0.00000000      0.00000000      0.00000000</v>
    <i type="logical" name="LZEROZ"> F  </i>
   </separator>
   <separator name="electronic exchange-correlation" >
    <i type="logical" name="LASPH"> F  </i>
    <i type="logical" name="LMETAGGA"> F  </i>
   </separator>
   <separator name="electronic convergence" >
    <i type="int" name="NELM">    40</i>
    <i type="int" name="NELMDL">     0</i>
    <i type="int" name="NELMIN">     8</i>
    <i name="ENINI">    520.00000000</i>
    <separator name="electronic convergence detail" >
     <i type="logical" name="LDIAG"> T  </i>
     <i type="logical" name="LSUBROT"> F  </i>
     <i name="WEIMIN">      0.00100000</i>
     <i name="EBREAK">      0.00000003</i>
     <i name="DEPER">      0.30000000</i>
     <i type="int" name="NRMM">     4</i>
     <i name="TIME">      0.40000000</i>
    </separator>
   </separator>
   <separator name="electronic mixer" >
    <i name="AMIX">      0.40000000</i>
    <i name="BMIX">      1.00000000</i>
    <i name="AMIN">      0.10000000</i>
    <i name="AMIX_MAG">      1.60000000</i>
    <i name="BMIX_MAG">      1.00000000</i>
    <separator name="electronic mixer details" >
     <i type="int" name="IMIX">     4</i>
     <i type="logical" name="MIXFIRST"> F  </i>
     <i type="int" name="MAXMIX">   -45</i>
     <i name="WC">    100.00000000</i>
     <i type="int" name="INIMIX">     1</i>
     <i type="int" name="MIXPRE">     1</i>
     <i type="int" name="MREMOVE">     5</i>
    </separator>
   </separator>
   <separator name="electronic dipolcorrection" >
    <i type="logical" name="LDIPOL"> F  </i>
    <i type="logical" name="LMONO"> F  </i>
    <i type="int" name="IDIPOL">     0</i>
    <i name="EPSILON">      1.00000000</i>
    <v name="DIPOL">   -100.00000000   -100.00000000   -100.00000000</v>
    <i name="EFIELD">      0.00000000</i>
   </separator>
  </separator>
  <separator name="grids" >
   <i type="int" name="NGX">    64</i>
   <i type="int" name="NGY">    64</i>
   <i type="int" name="NGZ">    90</i>
   <i type="int" name="NGXF">   128</i>
   <i type="int" name="NGYF">   128</i>
   <i type="int" name="NGZF">   180</i>
   <i type="logical" name="ADDGRID"> F  </i>
  </separator>
  <separator name="ionic" >
   <i type="int" name="NSW">    30</i>
   <i type="int" name="IBRION">     2</i>
   <i type="int" name="ISIF">     3</i>
   <i name="PSTRESS">      0.00000000</i>
   <i name="EDIFFG">     -0.03000000</i>
   <i type="int" name="NFREE">     1</i>
   <i name="POTIM">      0.50000000</i>
   <i name="SMASS">     -3.00000000</i>
   <i name="SCALEE">      1.00000000</i>
  </separator>
  <separator name="ionic md" >
   <i name="TEBEG">      0.00010000</i>
   <i name="TEEND">      0.00010000</i>
   <i type="int" name="NBLOCK">     1</i>
   <i type="int" name="KBLOCK">    30</i>
   <i type="int" name="NPACO">   256</i>
   <i name="APACO">     16.00000000</i>
  </separator>
  <separator name="symmetry" >
   <i type="int" name="ISYM">     2</i>
   <i name="SYMPREC">      0.00001000</i>
  </separator>
  <separator name="dos" >
   <i type="logical" name="LORBIT"> F  </i>
   <v name="RWIGS">     -1.00000000     -1.00000000     -1.00000000     -1.00000000</v>
   <i type="int" name="NEDOS">   301</i>
   <i name="EMIN">     10.00000000</i>
   <i name="EMAX">    -10.00000000</i>
   <i name="EFERMI">      0.00000000</i>
  </separator>
  <separator name="writing" >
   <i type="int" name="NWRITE">     2</i>
   <i type="logical" name="LWAVE"> T  </i>
   <i type="logical" name="LCHARG"> T  </i>
   <i type="logical" name="LPARD"> F  </i>
   <i type="logical" name="LVTOT"> F  </i>
   <i type="logical" name="LVHAR"> F  </i>
   <i type="logical" name="LELF"> F  </i>
   <i type="logical" name="LOPTICS"> F  </i>
   <v name="STM">      0.00000000      0.00000000      0.00000000      0.00000000      0.00000000      0.00000000      0.00000000</v>
  </separator>
  <separator name="performance" >
   <i type="int" name="NPAR">     2</i>
   <i type="int" name="NSIM">     4</i>
   <i type="int" name="NBLK">    -1</i>
   <i type="logical" name="LPLANE"> T  </i>
   <i type="logical" name="LSCALAPACK"> T  </i>
   <i type="logical" name="LSCAAWARE"> F  </i>
   <i type="logical" name="LSCALU"> F  </i>
   <i type="logical" name="LASYNC"> F  </i>
   <i type="logical" name="LORBITALREAL"> F  </i>
  </separator>
  <separator name="miscellaneous" >
   <i type="int" name="IDIOT">     3</i>
   <i type="logical" name="LMUSIC"> F  </i>
   <v name="POMASS">     87.62000000     47.88000000     55.84700000     16.00000000</v>
   <v name="DARWINR">      0.00000000      0.00000000      0.00000000      0.00000000</v>
   <v name="DARWINV">      1.00000000      1.00000000      1.00000000      1.00000000</v>
   <i type="logical" name="LCORR"> T  </i>
  </separator>
  <i type="logical" name="GGA_COMPAT"> T  </i>
  <i type="logical" name="LBERRY"> F  </i>
  <i type="int" name="ICORELEVEL">     0</i>
  <i type="logical" name="LDAU"> T  </i>
  <v type="int" name="LDAUTYPE">     2</v>
  <v type="int" name="LDAUL">     0</v>
  <v name="LDAUU">      0.00000000</v>
  <v name="LDAUJ">      0.00000000</v>
  <i type="int" name="LDAUPRINT">     1</i>
  <i type="int" name="I_CONSTRAINED_M">     0</i>
  <separator name="electronic exchange-correlation" >
   <i type="string" name="GGA">--</i>
   <i type="int" name="VOSKOWN">     0</i>
   <i type="logical" name="LHFCALC"> F  </i>
   <i type="string" name="PRECFOCK"></i>
   <i type="logical" name="LSYMGRAD"> F  </i>
   <i type="logical" name="LHFONE"> F  </i>
   <i type="logical" name="LRHFCALC"> F  </i>
   <i type="logical" name="LTHOMAS"> F  </i>
   <i type="logical" name="LMODELHF"> F  </i>
   <i name="ENCUT4O">     -1.00000000</i>
   <i type="int" name="EXXOEP">     0</i>
   <i type="int" name="FOURORBIT">     0</i>
   <i name="AEXX">      0.00000000</i>
   <i name="HFALPHA">      0.00000000</i>
   <i name="MCALPHA">      0.00000000</i>
   <i name="ALDAX">      1.00000000</i>
   <i name="AGGAX">      1.00000000</i>
   <i name="ALDAC">      1.00000000</i>
   <i name="AGGAC">      1.00000000</i>
   <i type="int" name="NKREDX">     1</i>
   <i type="int" name="NKREDY">     1</i>
   <i type="int" name="NKREDZ">     1</i>
   <i type="logical" name="SHIFTRED"> F  </i>
   <i type="logical" name="ODDONLY"> F  </i>
   <i type="logical" name="EVENONLY"> F  </i>
   <i type="int" name="LMAXFOCK">     0</i>
   <i type="int" name="NMAXFOCKAE">     0</i>
   <i type="logical" name="LFOCKAEDFT"> F  </i>
   <i name="HFSCREEN">      0.00000000</i>
   <i name="HFSCREENC">      0.00000000</i>
   <i type="int" name="NBANDSGWLOW">     0</i>
  </separator>
  <separator name="vdW DFT" >
   <i type="logical" name="LUSE_VDW"> F  </i>
   <i name="Zab_VDW">     -0.84910000</i>
   <i name="PARAM1">      0.12340000</i>
   <i name="PARAM2">      1.00000000</i>
   <i name="PARAM3">      0.00000000</i>
  </separator>
  <separator name="model GW" >
   <i type="int" name="MODEL_GW">     0</i>
   <i name="MODEL_EPS0">      7.61782788</i>
   <i name="MODEL_ALPHA">      1.00000000</i>
  </separator>
  <separator name="linear response parameters" >
   <i type="logical" name="LEPSILON"> F  </i>
   <i type="logical" name="LRPA"> F  </i>
   <i type="logical" name="LNABLA"> F  </i>
   <i type="logical" name="LVEL"> F  </i>
   <i type="int" name="KINTER">     0</i>
   <i name="CSHIFT">      0.10000000</i>
   <i name="OMEGAMAX">     -1.00000000</i>
   <i name="DEG_THRESHOLD">      0.00200000</i>
  </separator>
  <separator name="orbital magnetization" >
   <i type="logical" name="NUCIND"> F  </i>
   <v name="MAGPOS">      0.00000000      0.00000000      0.00000000</v>
   <i type="logical" name="LNICSALL"> T  </i>
   <i type="logical" name="ORBITALMAG"> F  </i>
   <i type="logical" name="LMAGBLOCH"> F  </i>
   <i type="logical" name="LCHIMAG"> F  </i>
   <i type="logical" name="LGAUGE"> T  </i>
   <i type="int" name="MAGATOM">     0</i>
   <v name="MAGDIPOL">      0.00000000      0.00000000      0.00000000</v>
   <v name="AVECCONST">      0.00000000      0.00000000      0.00000000</v>
  </separator>
  <separator name="response functions" >
   <i type="logical" name="LADDER"> F  </i>
   <i type="logical" name="LFXC"> F  </i>
   <i type="logical" name="LHARTREE"> T  </i>
   <i type="int" name="IBSE">     0</i>
   <v type="int" name="KPOINT">    -1     0     0     0</v>
   <i type="logical" name="LTCTE"> F  </i>
   <i type="logical" name="LTETE"> F  </i>
   <i type="logical" name="LTRIPLET"> F  </i>
   <i type="logical" name="LFXCEPS"> F  </i>
   <i type="logical" name="LFXHEG"> F  </i>
   <i type="int" name="NATURALO">     0</i>
   <i type="logical" name="L2ORDER"> F  </i>
   <i type="logical" name="LUSEW"> F  </i>
   <i name="ENCUTGW">     -2.00000000</i>
   <i name="ENCUTGWSOFT">     -2.00000000</i>
   <i name="ENCUTLF">     -1.00000000</i>
   <i type="int" name="LMAXMP2">    -1</i>
   <i name="SCISSOR">      0.00000000</i>
   <i type="int" name="NOMEGA">     0</i>
   <i type="int" name="NOMEGAR">     0</i>
   <i type="int" name="NBANDSGW">    -1</i>
   <i type="int" name="NBANDSO">    -1</i>
   <i type="int" name="NBANDSV">    -1</i>
   <i type="int" name="NELM">    40</i>
   <i type="int" name="NELMHF">     1</i>
   <i type="int" name="DIM">     3</i>
   <i type="int" name="ANTIRES">     0</i>
   <i name="OMEGAMAX">    -30.00000000</i>
   <i name="OMEGAMIN">    -30.00000000</i>
   <i name="OMEGATL">   -200.00000000</i>
   <i type="int" name="OMEGAGRID">     0</i>
   <i name="CSHIFT">     -0.10000000</i>
   <i type="logical" name="SELFENERGY"> F  </i>
   <i type="logical" name="LSPECTRAL"> F  </i>
   <i type="logical" name="LSPECTRALGW"> F  </i>
   <i type="logical" name="LSINGLES"> F  </i>
   <i type="logical" name="LFERMIGW"> F  </i>
   <i type="logical" name="ODDONLYGW"> F  </i>
   <i type="logical" name="EVENONLYGW"> F  </i>
   <i type="int" name="NKREDLFX">     1</i>
   <i type="int" name="NKREDLFY">     1</i>
   <i type="int" name="NKREDLFZ">     1</i>
   <i type="int" name="MAXMEM">  1800</i>
   <i type="int" name="TELESCOPE">     0</i>
   <i type="int" name="TAUPAR">     1</i>
   <i type="int" name="OMEGAPAR">    -1</i>
   <i name="LAMBDA">      1.00000000</i>
  </separator>
  <separator name="External order field" >
   <i name="OFIELD_KAPPA">      0.00000000</i>
   <v name="OFIELD_K">      0.00000000      0.00000000      0.00000000</v>
   <i name="OFIELD_Q6_NEAR">      0.00000000</i>
   <i name="OFIELD_Q6_FAR">      0.00000000</i>
   <i name="OFIELD_A">      0.00000000</i>
  </separator>
 </parameters>
 <atominfo>
  <atoms>     158 </atoms>
  <types>       4 </types>
  <array name="atoms" >
   <dimension dim="1">ion</dimension>
   <field type="string">element</field>
   <field type="int">atomtype</field>
   <set>
    <rc><c>Sr</c><c>   1</c></rc>
    <rc><c>Sr</c><c>   1</c></rc>
    <rc><c>Sr</c><c>   1</c></rc>
    <rc><c>Sr</c><c>   1</c></rc>
    <rc><c>Sr</c><c>   1</c></rc>
    <rc><c>Sr</c><c>   1</c></rc>
    <rc><c>Sr</c><c>   1</c></rc>
    <rc><c>Sr</c><c>   1</c></rc>
    <rc><c>Sr</c><c>   1</c></rc>
    <rc><c>Sr</c><c>   1</c></rc>
    <rc><c>Sr</c><c>   1</c></rc>
    <rc><c>Sr</c><c>   1</c></rc>
    <rc><c>Sr</c><c>   1</c></rc>
    <rc><c>Sr</c><c>   1</c></rc>
    <rc><c>Sr</c><c>   1</c></rc>
    <rc><c>Sr</c><c>   1</c></rc>
    <rc><c>Sr</c><c>   1</c></rc>
    <rc><c>Sr</c><c>   1</c></rc>
    <rc><c>Sr</c><c>   1</c></rc>
    <rc><c>Sr</c><c>   1</c></rc>
    <rc><c>Sr</c><c>   1</c></rc>
    <rc><c>Sr</c><c>   1</c></rc>
    <rc><c>Sr</c><c>   1</c></rc>
    <rc><c>Sr</c><c>   1</c></rc>
    <rc><c>Sr</c><c>   1</c></rc>
    <rc><c>Sr</c><c>   1</c></rc>
    <rc><c>Sr</c><c>   1</c></rc>
    <rc><c>Sr</c><c>   1</c></rc>
    <rc><c>Sr</c><c>   1</c></rc>
    <rc><c>Sr</c><c>   1</c></rc>
    <rc><c>Sr</c><c>   1</c></rc>
    <rc><c>Sr</c><c>   1</c></rc>
    <rc><c>Ti</c><c>   2</c></rc>
    <rc><c>Ti</c><c>   2</c></rc>
    <rc><c>Ti</c><c>   2</c></rc>
    <rc><c>Ti</c><c>   2</c></rc>
    <rc><c>Ti</c><c>   2</c></rc>
    <rc><c>Ti</c><c>   2</c></rc>
    <rc><c>Ti</c><c>   2</c></rc>
    <rc><c>Ti</c><c>   2</c></rc>
    <rc><c>Ti</c><c>   2</c></rc>
    <rc><c>Ti</c><c>   2</c></rc>
    <rc><c>Ti</c><c>   2</c></rc>
    <rc><c>Ti</c><c>   2</c></rc>
    <rc><c>Ti</c><c>   2</c></rc>
    <rc><c>Ti</c><c>   2</c></rc>
    <rc><c>Ti</c><c>   2</c></rc>
    <rc><c>Ti</c><c>   2</c></rc>
    <rc><c>Ti</c><c>   2</c></rc>
    <rc><c>Ti</c><c>   2</c></rc>
    <rc><c>Ti</c><c>   2</c></rc>
    <rc><c>Ti</c><c>   2</c></rc>
    <rc><c>Ti</c><c>   2</c></rc>
    <rc><c>Ti</c><c>   2</c></rc>
    <rc><c>Ti</c><c>   2</c></rc>
    <rc><c>Ti</c><c>   2</c></rc>
    <rc><c>Ti</c><c>   2</c></rc>
    <rc><c>Ti</c><c>   2</c></rc>
    <rc><c>Ti</c><c>   2</c></rc>
    <rc><c>Ti</c><c>   2</c></rc>
    <rc><c>Fe</c><c>   3</c></rc>
    <rc><c>Fe</c><c>   3</c></rc>
    <rc><c>Fe</c><c>   3</c></rc>
    <rc><c>Fe</c><c>   3</c></rc>
    <rc><c>O </c><c>   4</c></rc>
    <rc><c>O </c><c>   4</c></rc>
    <rc><c>O </c><c>   4</c></rc>
    <rc><c>O </c><c>   4</c></rc>
    <rc><c>O </c><c>   4</c></rc>
    <rc><c>O </c><c>   4</c></rc>
    <rc><c>O </c><c>   4</c></rc>
    <rc><c>O </c><c>   4</c></rc>
    <rc><c>O </c><c>   4</c></rc>
    <rc><c>O </c><c>   4</c></rc>
    <rc><c>O </c><c>   4</c></rc>
    <rc><c>O </c><c>   4</c></rc>
    <rc><c>O </c><c>   4</c></rc>
    <rc><c>O </c><c>   4</c></rc>
    <rc><c>O </c><c>   4</c></rc>
    <rc><c>O </c><c>   4</c></rc>
    <rc><c>O </c><c>   4</c></rc>
    <rc><c>O </c><c>   4</c></rc>
    <rc><c>O </c><c>   4</c></rc>
    <rc><c>O </c><c>   4</c></rc>
    <rc><c>O </c><c>   4</c></rc>
    <rc><c>O </c><c>   4</c></rc>
    <rc><c>O </c><c>   4</c></rc>
    <rc><c>O </c><c>   4</c></rc>
    <rc><c>O </c><c>   4</c></rc>
    <rc><c>O </c><c>   4</c></rc>
    <rc><c>O </c><c>   4</c></rc>
    <rc><c>O </c><c>   4</c></rc>
    <rc><c>O </c><c>   4</c></rc>
    <rc><c>O </c><c>   4</c></rc>
    <rc><c>O </c><c>   4</c></rc>
    <rc><c>O </c><c>   4</c></rc>
    <rc><c>O </c><c>   4</c></rc>
    <rc><c>O </c><c>   4</c></rc>
    <rc><c>O </c><c>   4</c></rc>
    <rc><c>O </c><c>   4</c></rc>
    <rc><c>O </c><c>   4</c></rc>
    <rc><c>O </c><c>   4</c></rc>
    <rc><c>O </c><c>   4</c></rc>
    <rc><c>O </c><c>   4</c></rc>
    <rc><c>O </c><c>   4</c></rc>
    <rc><c>O </c><c>   4</c></rc>
    <rc><c>O </c><c>   4</c></rc>
    <rc><c>O </c><c>   4</c></rc>
    <rc><c>O </c><c>   4</c></rc>
    <rc><c>O </c><c>   4</c></rc>
    <rc><c>O </c><c>   4</c></rc>
    <rc><c>O </c><c>   4</c></rc>
    <rc><c>O </c><c>   4</c></rc>
    <rc><c>O </c><c>   4</c></rc>
    <rc><c>O </c><c>   4</c></rc>
    <rc><c>O </c><c>   4</c></rc>
    <rc><c>O </c><c>   4</c></rc>
    <rc><c>O </c><c>   4</c></rc>
    <rc><c>O </c><c>   4</c></rc>
    <rc><c>O </c><c>   4</c></rc>
    <rc><c>O </c><c>   4</c></rc>
    <rc><c>O </c><c>   4</c></rc>
    <rc><c>O </c><c>   4</c></rc>
    <rc><c>O </c><c>   4</c></rc>
    <rc><c>O </c><c>   4</c></rc>
    <rc><c>O </c><c>   4</c></rc>
    <rc><c>O </c><c>   4</c></rc>
    <rc><c>O </c><c>   4</c></rc>
    <rc><c>O </c><c>   4</c></rc>
    <rc><c>O </c><c>   4</c></rc>
    <rc><c>O </c><c>   4</c></rc>
    <rc><c>O </c><c>   4</c></rc>
    <rc><c>O </c><c>   4</c></rc>
    <rc><c>O </c><c>   4</c></rc>
    <rc><c>O </c><c>   4</c></rc>
    <rc><c>O </c><c>   4</c></rc>
    <rc><c>O </c><c>   4</c></rc>
    <rc><c>O </c><c>   4</c></rc>
    <rc><c>O </c><c>   4</c></rc>
    <rc><c>O </c><c>   4</c></rc>
    <rc><c>O </c><c>   4</c></rc>
    <rc><c>O </c><c>   4</c></rc>
    <rc><c>O </c><c>   4</c></rc>
    <rc><c>O </c><c>   4</c></rc>
    <rc><c>O </c><c>   4</c></rc>
    <rc><c>O </c><c>   4</c></rc>
    <rc><c>O </c><c>   4</c></rc>
    <rc><c>O </c><c>   4</c></rc>
    <rc><c>O </c><c>   4</c></rc>
    <rc><c>O </c><c>   4</c></rc>
    <rc><c>O </c><c>   4</c></rc>
    <rc><c>O </c><c>   4</c></rc>
    <rc><c>O </c><c>   4</c></rc>
    <rc><c>O </c><c>   4</c></rc>
    <rc><c>O </c><c>   4</c></rc>
    <rc><c>O </c><c>   4</c></rc>
    <rc><c>O </c><c>   4</c></rc>
    <rc><c>O </c><c>   4</c></rc>
   </set>
  </array>
  <array name="atomtypes" >
   <dimension dim="1">type</dimension>
   <field type="int">atomspertype</field>
   <field type="string">element</field>
   <field>mass</field>
   <field>valence</field>
   <field type="string">pseudopotential</field>
   <set>
    <rc><c>  32</c><c>Sr</c><c>     87.62000000</c><c>     10.00000000</c><c>  PAW_PBE Sr_sv 07Sep2000               </c></rc>
    <rc><c>  28</c><c>Ti</c><c>     47.88000000</c><c>      4.00000000</c><c>  PAW_PBE Ti 08Apr2002                  </c></rc>
    <rc><c>   4</c><c>Fe</c><c>     55.84700000</c><c>      8.00000000</c><c>  PAW_PBE Fe 06Sep2000                  </c></rc>
    <rc><c>  94</c><c>O </c><c>     16.00000000</c><c>      6.00000000</c><c>  PAW_PBE O 08Apr2002                   </c></rc>
   </set>
  </array>
 </atominfo>
 <structure name="initialpos" >
  <crystal>
   <varray name="basis" >
    <v>      11.20778264      -0.00040024      -0.00057879 </v>
    <v>      -0.00039052      11.20973166       0.00074355 </v>
    <v>      -0.00082861       0.00105947      15.96695421 </v>
   </varray>
   <i name="volume">   2006.02800951 </i>
   <varray name="rec_basis" >
    <v>       0.08922371       0.00000311       0.00000463 </v>
    <v>       0.00000319       0.08920820      -0.00000592 </v>
    <v>       0.00000323      -0.00000415       0.06262935 </v>
   </varray>
  </crystal>
  <varray name="positions" >
   <v>       0.99433294       0.25123672       0.12747392 </v>
   <v>       0.00047937       0.24983436       0.62489529 </v>
   <v>       0.01035359       0.74982342       0.12633120 </v>
   <v>       0.00162906       0.74998614       0.62464736 </v>
   <v>       0.50390096       0.24863358       0.12977465 </v>
   <v>       0.50097147       0.24994319       0.62283059 </v>
   <v>       0.48825100       0.75118956       0.12524134 </v>
   <v>       0.49823433       0.74878405       0.62508932 </v>
   <v>       0.99850493       0.24980305       0.37401328 </v>
   <v>       0.99535931       0.25217000       0.87423710 </v>
   <v>       0.00453566       0.75018113       0.37679237 </v>
   <v>       0.00453464       0.74923079       0.87235513 </v>
   <v>       0.50292102       0.24727711       0.37603187 </v>
   <v>       0.50342762       0.25378289       0.87024543 </v>
   <v>       0.49482328       0.75127039       0.37780271 </v>
   <v>       0.49285838       0.74753087       0.87211783 </v>
   <v>       0.25035437       0.99505191       0.12889800 </v>
   <v>       0.25241566       0.00044531       0.62347612 </v>
   <v>       0.24595341       0.50453853       0.12949233 </v>
   <v>       0.25291243       0.49895874       0.62487049 </v>
   <v>       0.74815701       0.01396613       0.12852632 </v>
   <v>       0.74785133       0.00217976       0.62385597 </v>
   <v>       0.75285276       0.48618565       0.12809363 </v>
   <v>       0.74717786       0.49753030       0.62482378 </v>
   <v>       0.25277277       0.00032197       0.37616356 </v>
   <v>       0.25104033       0.99362060       0.87125852 </v>
   <v>       0.25164875       0.49960144       0.37548553 </v>
   <v>       0.25051622       0.50534232       0.87038001 </v>
   <v>       0.74741850       0.00724887       0.37680361 </v>
   <v>       0.74822109       0.00606778       0.87148408 </v>
   <v>       0.74894635       0.49194539       0.37627264 </v>
   <v>       0.74735301       0.49425026       0.87140575 </v>
   <v>       0.99387673       0.99532584       0.00131877 </v>
   <v>       0.99986760       0.00005025       0.49992038 </v>
   <v>       0.00021462       0.50114605       0.00050826 </v>
   <v>       0.99953944       0.50061021       0.50007835 </v>
   <v>       0.50065653       0.00118809       0.00019996 </v>
   <v>       0.50097934       0.50082387       0.50075830 </v>
   <v>       0.24235463       0.23648585       0.99932773 </v>
   <v>       0.25084341       0.24824027       0.49927647 </v>
   <v>       0.25026459       0.74909605       0.99968515 </v>
   <v>       0.25079018       0.75114907       0.50050377 </v>
   <v>       0.74783222       0.25072404       0.00052562 </v>
   <v>       0.74927625       0.24859809       0.49909663 </v>
   <v>       0.75032958       0.75116805       0.99125874 </v>
   <v>       0.74825100       0.75067386       0.50278323 </v>
   <v>       0.25101809       0.25082927       0.25089118 </v>
   <v>       0.25270185       0.25226728       0.75067546 </v>
   <v>       0.24993403       0.75001640       0.25186984 </v>
   <v>       0.25062330       0.74881312       0.74846658 </v>
   <v>       0.74912432       0.25150862       0.74887063 </v>
   <v>       0.74929598       0.74920459       0.25787494 </v>
   <v>       0.74825099       0.74866682       0.74669346 </v>
   <v>       0.99858483       0.00163641       0.24938698 </v>
   <v>       0.99920882       0.99964365       0.75013853 </v>
   <v>       0.99893282       0.49897444       0.24995530 </v>
   <v>       0.99924271       0.50031820       0.74948497 </v>
   <v>       0.50094885       0.00063257       0.25030180 </v>
   <v>       0.50015172       0.99969068       0.74814151 </v>
   <v>       0.50065895       0.49763325       0.24753570 </v>
   <v>       0.50035584       0.99904418       0.49996357 </v>
   <v>       0.51437278       0.51054786       0.00224804 </v>
   <v>       0.75006776       0.24987987       0.25147588 </v>
   <v>       0.49952657       0.49978079       0.75067309 </v>
   <v>       0.11298951       0.13977409       0.24604881 </v>
   <v>       0.11174944       0.13893284       0.75929643 </v>
   <v>       0.11230539       0.63794735       0.24929906 </v>
   <v>       0.10979572       0.63964133       0.75106175 </v>
   <v>       0.61274184       0.13405517       0.24943531 </v>
   <v>       0.61162451       0.13819784       0.75139463 </v>
   <v>       0.61696253       0.63828168       0.23133128 </v>
   <v>       0.61170508       0.64120213       0.75442716 </v>
   <v>       0.38785545       0.36110880       0.25750996 </v>
   <v>       0.38781694       0.35982729       0.74481170 </v>
   <v>       0.38673887       0.86171655       0.24946717 </v>
   <v>       0.38879688       0.86074586       0.75059511 </v>
   <v>       0.88849668       0.36530768       0.24984748 </v>
   <v>       0.89023815       0.36068033       0.75081082 </v>
   <v>       0.88328634       0.85948036       0.23797610 </v>
   <v>       0.88959022       0.85860390       0.74869804 </v>
   <v>       0.36095176       0.11171396       0.24985002 </v>
   <v>       0.36043582       0.11057914       0.75424603 </v>
   <v>       0.36233727       0.61308151       0.24906903 </v>
   <v>       0.35916427       0.61273530       0.75000618 </v>
   <v>       0.86477112       0.11117038       0.25080966 </v>
   <v>       0.86120927       0.11022423       0.74947375 </v>
   <v>       0.86033245       0.61725709       0.23699826 </v>
   <v>       0.85894760       0.60989530       0.75008828 </v>
   <v>       0.13885860       0.38937130       0.25150721 </v>
   <v>       0.13823375       0.38978823       0.75243622 </v>
   <v>       0.13701871       0.88752928       0.25092682 </v>
   <v>       0.13876412       0.88954479       0.75042414 </v>
   <v>       0.63561024       0.38838967       0.24858533 </v>
   <v>       0.64049486       0.38776017       0.75095811 </v>
   <v>       0.63943362       0.88150121       0.23637359 </v>
   <v>       0.64123158       0.88926358       0.74979928 </v>
   <v>       0.36050034       0.38963218       0.49804875 </v>
   <v>       0.35972500       0.89056192       0.00034611 </v>
   <v>       0.35856438       0.88796301       0.49924322 </v>
   <v>       0.86368060       0.38895774       0.99890817 </v>
   <v>       0.86021804       0.39117897       0.50084295 </v>
   <v>       0.85522501       0.88693652       0.01494048 </v>
   <v>       0.85898445       0.89040014       0.50004628 </v>
   <v>       0.14294260       0.10579676       0.99650072 </v>
   <v>       0.13885755       0.10873341       0.49839133 </v>
   <v>       0.13707491       0.61265760       0.99974359 </v>
   <v>       0.14010093       0.60965851       0.49947862 </v>
   <v>       0.64254551       0.10768435       0.99919433 </v>
   <v>       0.64096921       0.11134564       0.50060834 </v>
   <v>       0.64684019       0.61682827       0.01693693 </v>
   <v>       0.64286529       0.60955893       0.49924243 </v>
   <v>       0.12175166       0.36537345       0.99832879 </v>
   <v>       0.10929764       0.36082361       0.49809406 </v>
   <v>       0.10809095       0.85974929       0.99943274 </v>
   <v>       0.10870534       0.85932422       0.50015229 </v>
   <v>       0.60942072       0.35859470       0.00084581 </v>
   <v>       0.61019510       0.36093991       0.49872779 </v>
   <v>       0.61283238       0.85687629       0.00987491 </v>
   <v>       0.61157475       0.85687627       0.50072359 </v>
   <v>       0.39539834       0.14988779       0.99809614 </v>
   <v>       0.38772754       0.14046508       0.49862131 </v>
   <v>       0.38365438       0.63395644       0.00076760 </v>
   <v>       0.38978049       0.64016859       0.49979295 </v>
   <v>       0.89284348       0.13908871       0.00011990 </v>
   <v>       0.89109685       0.13996837       0.49964181 </v>
   <v>       0.88730025       0.64402800       0.01043520 </v>
   <v>       0.89083411       0.64245503       0.50034332 </v>
   <v>       0.00685681       0.00380014       0.12424969 </v>
   <v>       0.00227341       0.00251066       0.62548752 </v>
   <v>       0.00488744       0.49495075       0.12433126 </v>
   <v>       0.00101709       0.50048323       0.62555388 </v>
   <v>       0.49410716       0.00406281       0.12372843 </v>
   <v>       0.49844866       0.00083807       0.62698965 </v>
   <v>       0.47973462       0.48288106       0.12163714 </v>
   <v>       0.50209504       0.50262677       0.62278900 </v>
   <v>       0.99765895       0.99589475       0.37365257 </v>
   <v>       0.99056284       0.99180254       0.87733621 </v>
   <v>       0.99417977       0.50620470       0.37363428 </v>
   <v>       0.99554706       0.50539141       0.87619896 </v>
   <v>       0.50526229       0.99429122       0.37201899 </v>
   <v>       0.50343361       0.99296846       0.87674322 </v>
   <v>       0.50568535       0.50983481       0.37259862 </v>
   <v>       0.49297032       0.49390721       0.88125296 </v>
   <v>       0.24583361       0.24703763       0.37440588 </v>
   <v>       0.26444195       0.26653958       0.87952123 </v>
   <v>       0.24902507       0.74903957       0.37514019 </v>
   <v>       0.24958089       0.75146974       0.87497597 </v>
   <v>       0.75052012       0.25053943       0.37644184 </v>
   <v>       0.75256306       0.24951248       0.87489828 </v>
   <v>       0.74799754       0.74811237       0.37320282 </v>
   <v>       0.75204296       0.75120352       0.87637941 </v>
   <v>       0.26145180       0.26263242       0.12104704 </v>
   <v>       0.24495148       0.24692220       0.62563063 </v>
   <v>       0.24814829       0.75184357       0.12504306 </v>
   <v>       0.24841659       0.75008508       0.62493991 </v>
   <v>       0.75288751       0.24912558       0.12355975 </v>
   <v>       0.75060019       0.25042764       0.62523657 </v>
   <v>       0.74894618       0.74798275       0.62528325 </v>
  </varray>
 </structure>
 <calculation>
  <scstep>
   <time name="dav">  593.16  593.33</time>
   <time name="total">  600.37  600.61</time>
   <energy>
    <i name="alphaZ">   5631.16647286 </i>
    <i name="ewald"> -61009.00449541 </i>
    <i name="hartreedc"> -15484.44480157 </i>
    <i name="XCdc">   2852.26164547 </i>
    <i name="pawpsdc"> 111911.34417767 </i>
    <i name="pawaedc">-110659.37968655 </i>
    <i name="eentropy">     -0.00000000 </i>
    <i name="bandstr">  -7044.46139014 </i>
    <i name="atom">  72650.08363186 </i>
    <i name="e_fr_energy">  -1152.43444581 </i>
    <i name="e_wo_entrp">  -1152.43444581 </i>
    <i name="e_0_energy">  -1152.43444581 </i>
   </energy>
  </scstep>
  <scstep>
   <time name="diag">   65.10   65.09</time>
   <time name="diis">   62.70   62.71</time>
   <time name="orth">   33.34   33.34</time>
   <time name="total">  168.35  168.39</time>
   <energy>
    <i name="e_fr_energy">  -1152.43444613 </i>
    <i name="e_wo_entrp">  -1152.43444613 </i>
    <i name="e_0_energy">  -1152.43444613 </i>
   </energy>
  </scstep>
  <scstep>
   <time name="diag">   65.08   65.08</time>
   <time name="diis">   57.72   57.73</time>
   <time name="orth">   33.31   33.31</time>
   <time name="total">  163.34  163.48</time>
   <energy>
    <i name="e_fr_energy">  -1152.43444665 </i>
    <i name="e_wo_entrp">  -1152.43444665 </i>
    <i name="e_0_energy">  -1152.43444665 </i>
   </energy>
  </scstep>
  <scstep>
   <time name="diag">   65.08   65.08</time>
   <time name="diis">   51.83   51.85</time>
   <time name="orth">   33.32   33.32</time>
   <time name="total">  157.45  157.51</time>
   <energy>
    <i name="e_fr_energy">  -1152.43444712 </i>
    <i name="e_wo_entrp">  -1152.43444712 </i>
    <i name="e_0_energy">  -1152.43444712 </i>
   </energy>
  </scstep>
  <scstep>
   <time name="diag">   65.10   65.10</time>
   <time name="diis">   50.66   50.66</time>
   <time name="orth">   33.31   33.31</time>
   <time name="total">  156.29  156.38</time>
   <energy>
    <i name="e_fr_energy">  -1152.43444738 </i>
    <i name="e_wo_entrp">  -1152.43444738 </i>
    <i name="e_0_energy">  -1152.43444738 </i>
   </energy>
  </scstep>
  <scstep>
   <time name="diag">   64.98   64.99</time>
   <time name="diis">   46.99   46.99</time>
   <time name="orth">   33.31   33.31</time>
   <time name="total">  152.51  152.53</time>
   <energy>
    <i name="e_fr_energy">  -1152.43444759 </i>
    <i name="e_wo_entrp">  -1152.43444759 </i>
    <i name="e_0_energy">  -1152.43444759 </i>
   </energy>
  </scstep>
  <scstep>
   <time name="diag">   65.33   65.32</time>
   <time name="diis">   46.10   46.10</time>
   <time name="orth">   33.29   33.29</time>
   <time name="total">  152.02  152.09</time>
   <energy>
    <i name="e_fr_energy">  -1152.43444767 </i>
    <i name="e_wo_entrp">  -1152.43444767 </i>
    <i name="e_0_energy">  -1152.43444767 </i>
   </energy>
  </scstep>
  <scstep>
   <time name="diag">   65.28   65.28</time>
   <time name="diis">   44.66   44.66</time>
   <time name="orth">   33.35   33.35</time>
   <time name="total">  144.34  144.41</time>
   <energy>
    <i name="alphaZ">   5631.16647286 </i>
    <i name="ewald"> -61009.00449541 </i>
    <i name="hartreedc"> -15484.45507135 </i>
    <i name="XCdc">   2852.26234071 </i>
    <i name="pawpsdc"> 111910.64213731 </i>
    <i name="pawaedc">-110658.67030521 </i>
    <i name="eentropy">     -0.00000000 </i>
    <i name="bandstr">  -7044.45915848 </i>
    <i name="atom">  72650.08363186 </i>
    <i name="e_fr_energy">  -1152.43444771 </i>
    <i name="e_wo_entrp">  -1152.43444771 </i>
    <i name="e_0_energy">  -1152.43444771 </i>
   </energy>
  </scstep>
  <structure>
   <crystal>
    <varray name="basis" >
     <v>      11.20778264      -0.00040024      -0.00057879 </v>
     <v>      -0.00039052      11.20973166       0.00074355 </v>
     <v>      -0.00082861       0.00105947      15.96695421 </v>
    </varray>
    <i name="volume">   2006.02800951 </i>
    <varray name="rec_basis" >
     <v>       0.08922371       0.00000311       0.00000463 </v>
     <v>       0.00000319       0.08920820      -0.00000592 </v>
     <v>       0.00000323      -0.00000415       0.06262935 </v>
    </varray>
   </crystal>
   <varray name="positions" >
    <v>       0.99433294       0.25123672       0.12747392 </v>
    <v>       0.00047937       0.24983436       0.62489529 </v>
    <v>       0.01035359       0.74982342       0.12633120 </v>
    <v>       0.00162906       0.74998614       0.62464736 </v>
    <v>       0.50390096       0.24863358       0.12977465 </v>
    <v>       0.50097147       0.24994319       0.62283059 </v>
    <v>       0.48825100       0.75118956       0.12524134 </v>
    <v>       0.49823433       0.74878405       0.62508932 </v>
    <v>       0.99850493       0.24980305       0.37401328 </v>
    <v>       0.99535931       0.25217000       0.87423710 </v>
    <v>       0.00453566       0.75018113       0.37679237 </v>
    <v>       0.00453464       0.74923079       0.87235513 </v>
    <v>       0.50292102       0.24727711       0.37603187 </v>
    <v>       0.50342762       0.25378289       0.87024543 </v>
    <v>       0.49482328       0.75127039       0.37780271 </v>
    <v>       0.49285838       0.74753087       0.87211783 </v>
    <v>       0.25035437       0.99505191       0.12889800 </v>
    <v>       0.25241566       0.00044531       0.62347612 </v>
    <v>       0.24595341       0.50453853       0.12949233 </v>
    <v>       0.25291243       0.49895874       0.62487049 </v>
    <v>       0.74815701       0.01396613       0.12852632 </v>
    <v>       0.74785133       0.00217976       0.62385597 </v>
    <v>       0.75285276       0.48618565       0.12809363 </v>
    <v>       0.74717786       0.49753030       0.62482378 </v>
    <v>       0.25277277       0.00032197       0.37616356 </v>
    <v>       0.25104033       0.99362060       0.87125852 </v>
    <v>       0.25164875       0.49960144       0.37548553 </v>
    <v>       0.25051622       0.50534232       0.87038001 </v>
    <v>       0.74741850       0.00724887       0.37680361 </v>
    <v>       0.74822109       0.00606778       0.87148408 </v>
    <v>       0.74894635       0.49194539       0.37627264 </v>
    <v>       0.74735301       0.49425026       0.87140575 </v>
    <v>       0.99387673       0.99532584       0.00131877 </v>
    <v>       0.99986760       0.00005025       0.49992038 </v>
    <v>       0.00021462       0.50114605       0.00050826 </v>
    <v>       0.99953944       0.50061021       0.50007835 </v>
    <v>       0.50065653       0.00118809       0.00019996 </v>
    <v>       0.50097934       0.50082387       0.50075830 </v>
    <v>       0.24235463       0.23648585       0.99932773 </v>
    <v>       0.25084341       0.24824027       0.49927647 </v>
    <v>       0.25026459       0.74909605       0.99968515 </v>
    <v>       0.25079018       0.75114907       0.50050377 </v>
    <v>       0.74783222       0.25072404       0.00052562 </v>
    <v>       0.74927625       0.24859809       0.49909663 </v>
    <v>       0.75032958       0.75116805       0.99125874 </v>
    <v>       0.74825100       0.75067386       0.50278323 </v>
    <v>       0.25101809       0.25082927       0.25089118 </v>
    <v>       0.25270185       0.25226728       0.75067546 </v>
    <v>       0.24993403       0.75001640       0.25186984 </v>
    <v>       0.25062330       0.74881312       0.74846658 </v>
    <v>       0.74912432       0.25150862       0.74887063 </v>
    <v>       0.74929598       0.74920459       0.25787494 </v>
    <v>       0.74825099       0.74866682       0.74669346 </v>
    <v>       0.99858483       0.00163641       0.24938698 </v>
    <v>       0.99920882       0.99964365       0.75013853 </v>
    <v>       0.99893282       0.49897444       0.24995530 </v>
    <v>       0.99924271       0.50031820       0.74948497 </v>
    <v>       0.50094885       0.00063257       0.25030180 </v>
    <v>       0.50015172       0.99969068       0.74814151 </v>
    <v>       0.50065895       0.49763325       0.24753570 </v>
    <v>       0.50035584       0.99904418       0.49996357 </v>
    <v>       0.51437278       0.51054786       0.00224804 </v>
    <v>       0.75006776       0.24987987       0.25147588 </v>
    <v>       0.49952657       0.49978079       0.75067309 </v>
    <v>       0.11298951       0.13977409       0.24604881 </v>
    <v>       0.11174944       0.13893284       0.75929643 </v>
    <v>       0.11230539       0.63794735       0.24929906 </v>
    <v>       0.10979572       0.63964133       0.75106175 </v>
    <v>       0.61274184       0.13405517       0.24943531 </v>
    <v>       0.61162451       0.13819784       0.75139463 </v>
    <v>       0.61696253       0.63828168       0.23133128 </v>
    <v>       0.61170508       0.64120213       0.75442716 </v>
    <v>       0.38785545       0.36110880       0.25750996 </v>
    <v>       0.38781694       0.35982729       0.74481170 </v>
    <v>       0.38673887       0.86171655       0.24946717 </v>
    <v>       0.38879688       0.86074586       0.75059511 </v>
    <v>       0.88849668       0.36530768       0.24984748 </v>
    <v>       0.89023815       0.36068033       0.75081082 </v>
    <v>       0.88328634       0.85948036       0.23797610 </v>
    <v>       0.88959022       0.85860390       0.74869804 </v>
    <v>       0.36095176       0.11171396       0.24985002 </v>
    <v>       0.36043582       0.11057914       0.75424603 </v>
    <v>       0.36233727       0.61308151       0.24906903 </v>
    <v>       0.35916427       0.61273530       0.75000618 </v>
    <v>       0.86477112       0.11117038       0.25080966 </v>
    <v>       0.86120927       0.11022423       0.74947375 </v>
    <v>       0.86033245       0.61725709       0.23699826 </v>
    <v>       0.85894760       0.60989530       0.75008828 </v>
    <v>       0.13885860       0.38937130       0.25150721 </v>
    <v>       0.13823375       0.38978823       0.75243622 </v>
    <v>       0.13701871       0.88752928       0.25092682 </v>
    <v>       0.13876412       0.88954479       0.75042414 </v>
    <v>       0.63561024       0.38838967       0.24858533 </v>
    <v>       0.64049486       0.38776017       0.75095811 </v>
    <v>       0.63943362       0.88150121       0.23637359 </v>
    <v>       0.64123158       0.88926358       0.74979928 </v>
    <v>       0.36050034       0.38963218       0.49804875 </v>
    <v>       0.35972500       0.89056192       0.00034611 </v>
    <v>       0.35856438       0.88796301       0.49924322 </v>
    <v>       0.86368060       0.38895774       0.99890817 </v>
    <v>       0.86021804       0.39117897       0.50084295 </v>
    <v>       0.85522501       0.88693652       0.01494048 </v>
    <v>       0.85898445       0.89040014       0.50004628 </v>
    <v>       0.14294260       0.10579676       0.99650072 </v>
    <v>       0.13885755       0.10873341       0.49839133 </v>
    <v>       0.13707491       0.61265760       0.99974359 </v>
    <v>       0.14010093       0.60965851       0.49947862 </v>
    <v>       0.64254551       0.10768435       0.99919433 </v>
    <v>       0.64096921       0.11134564       0.50060834 </v>
    <v>       0.64684019       0.61682827       0.01693693 </v>
    <v>       0.64286529       0.60955893       0.49924243 </v>
    <v>       0.12175166       0.36537345       0.99832879 </v>
    <v>       0.10929764       0.36082361       0.49809406 </v>
    <v>       0.10809095       0.85974929       0.99943274 </v>
    <v>       0.10870534       0.85932422       0.50015229 </v>
    <v>       0.60942072       0.35859470       0.00084581 </v>
    <v>       0.61019510       0.36093991       0.49872779 </v>
    <v>       0.61283238       0.85687629       0.00987491 </v>
    <v>       0.61157475       0.85687627       0.50072359 </v>
    <v>       0.39539834       0.14988779       0.99809614 </v>
    <v>       0.38772754       0.14046508       0.49862131 </v>
    <v>       0.38365438       0.63395644       0.00076760 </v>
    <v>       0.38978049       0.64016859       0.49979295 </v>
    <v>       0.89284348       0.13908871       0.00011990 </v>
    <v>       0.89109685       0.13996837       0.49964181 </v>
    <v>       0.88730025       0.64402800       0.01043520 </v>
    <v>       0.89083411       0.64245503       0.50034332 </v>
    <v>       0.00685681       0.00380014       0.12424969 </v>
    <v>       0.00227341       0.00251066       0.62548752 </v>
    <v>       0.00488744       0.49495075       0.12433126 </v>
    <v>       0.00101709       0.50048323       0.62555388 </v>
    <v>       0.49410716       0.00406281       0.12372843 </v>
    <v>       0.49844866       0.00083807       0.62698965 </v>
    <v>       0.47973462       0.48288106       0.12163714 </v>
    <v>       0.50209504       0.50262677       0.62278900 </v>
    <v>       0.99765895       0.99589475       0.37365257 </v>
    <v>       0.99056284       0.99180254       0.87733621 </v>
    <v>       0.99417977       0.50620470       0.37363428 </v>
    <v>       0.99554706       0.50539141       0.87619896 </v>
    <v>       0.50526229       0.99429122       0.37201899 </v>
    <v>       0.50343361       0.99296846       0.87674322 </v>
    <v>       0.50568535       0.50983481       0.37259862 </v>
    <v>       0.49297032       0.49390721       0.88125296 </v>
    <v>       0.24583361       0.24703763       0.37440588 </v>
    <v>       0.26444195       0.26653958       0.87952123 </v>
    <v>       0.24902507       0.74903957       0.37514019 </v>
    <v>       0.24958089       0.75146974       0.87497597 </v>
    <v>       0.75052012       0.25053943       0.37644184 </v>
    <v>       0.75256306       0.24951248       0.87489828 </v>
    <v>       0.74799754       0.74811237       0.37320282 </v>
    <v>       0.75204296       0.75120352       0.87637941 </v>
    <v>       0.26145180       0.26263242       0.12104704 </v>
    <v>       0.24495148       0.24692220       0.62563063 </v>
    <v>       0.24814829       0.75184357       0.12504306 </v>
    <v>       0.24841659       0.75008508       0.62493991 </v>
    <v>       0.75288751       0.24912558       0.12355975 </v>
    <v>       0.75060019       0.25042764       0.62523657 </v>
    <v>       0.74894618       0.74798275       0.62528325 </v>
   </varray>
  </structure>
  <varray name="forces" >
   <v>       0.01815448      -0.00529936       0.00043286 </v>
   <v>       0.01981123       0.00125919      -0.00112930 </v>
   <v>      -0.01624390       0.00891539       0.00250542 </v>
   <v>      -0.00820147      -0.00315838      -0.00163358 </v>
   <v>      -0.01096865       0.00862603      -0.01790166 </v>
   <v>      -0.01403928      -0.00386123       0.01378385 </v>
   <v>       0.01311669       0.00359453      -0.00169908 </v>
   <v>       0.00243185      -0.00264118       0.00756918 </v>
   <v>       0.01825181       0.00626280       0.00886983 </v>
   <v>       0.00433082      -0.00839807       0.01018660 </v>
   <v>       0.00479399      -0.00617396      -0.01000309 </v>
   <v>       0.00069245       0.01140319       0.01111272 </v>
   <v>      -0.02060259      -0.00448302      -0.00302406 </v>
   <v>      -0.01245054       0.00451951       0.01018188 </v>
   <v>      -0.00364619       0.00509081       0.00635985 </v>
   <v>      -0.00270914       0.00696398       0.00287733 </v>
   <v>      -0.00346131       0.01538560      -0.00935664 </v>
   <v>       0.00393193       0.02364716       0.00098816 </v>
   <v>       0.01014871      -0.00565356      -0.00387239 </v>
   <v>       0.01830680      -0.01987859       0.00003559 </v>
   <v>      -0.00456850      -0.02916961      -0.01094394 </v>
   <v>      -0.00973351      -0.00148552      -0.00116925 </v>
   <v>       0.00030911       0.02803853      -0.01133497 </v>
   <v>      -0.01327643       0.00144146       0.01136507 </v>
   <v>       0.00063012       0.01635210      -0.00079151 </v>
   <v>      -0.00159482       0.00613772       0.00773293 </v>
   <v>       0.01578792      -0.01406002       0.00326708 </v>
   <v>      -0.00379021       0.00047473       0.01429912 </v>
   <v>       0.00133702       0.00020570      -0.00325469 </v>
   <v>      -0.01279251      -0.00324191       0.00629090 </v>
   <v>      -0.01104379      -0.00311971      -0.00532512 </v>
   <v>       0.00473709       0.00670817       0.00652794 </v>
   <v>       0.00941720      -0.01821722      -0.00632387 </v>
   <v>       0.01677562      -0.00369917       0.00755301 </v>
   <v>       0.00009082       0.02218642      -0.01641409 </v>
   <v>       0.01637297      -0.01006856       0.00364826 </v>
   <v>       0.01235698      -0.01323717      -0.00187994 </v>
   <v>      -0.01183851      -0.00656894      -0.00570365 </v>
   <v>      -0.01614518      -0.03394616       0.01916648 </v>
   <v>       0.02575232       0.01418742       0.00923559 </v>
   <v>       0.01376604      -0.01039704      -0.01704386 </v>
   <v>       0.02505020      -0.00388047      -0.01158920 </v>
   <v>      -0.03044501       0.00210022      -0.02091877 </v>
   <v>      -0.02513033      -0.00502256       0.03462898 </v>
   <v>      -0.00022963       0.01841287       0.01077905 </v>
   <v>      -0.01444078      -0.01048249       0.01755580 </v>
   <v>       0.00121282      -0.00947669      -0.00050102 </v>
   <v>       0.01567875       0.00226231      -0.03167750 </v>
   <v>       0.00370718       0.01210807      -0.01078372 </v>
   <v>       0.02944841      -0.01896256       0.00778037 </v>
   <v>      -0.03768640       0.00215179      -0.01130679 </v>
   <v>      -0.00466374       0.00967440      -0.02896686 </v>
   <v>      -0.01989952      -0.01282438      -0.00084592 </v>
   <v>       0.02150654      -0.02847351      -0.02368164 </v>
   <v>       0.01852363       0.01866606       0.01449819 </v>
   <v>      -0.00320260       0.03512403      -0.00341316 </v>
   <v>      -0.01497312      -0.00799313       0.00737316 </v>
   <v>       0.00094621      -0.04410257       0.00123606 </v>
   <v>       0.01477171       0.01692118      -0.01359445 </v>
   <v>      -0.02083505       0.01829307       0.00004330 </v>
   <v>      -0.01134604       0.00594355       0.01203812 </v>
   <v>       0.00244988       0.01677616       0.00299303 </v>
   <v>       0.00009446      -0.00252081       0.00212969 </v>
   <v>      -0.00681215      -0.00666970      -0.01488385 </v>
   <v>      -0.00935272      -0.01307529       0.01887568 </v>
   <v>       0.00260683      -0.00105201       0.00091896 </v>
   <v>       0.01446295      -0.01710758       0.00572707 </v>
   <v>       0.00952632      -0.00478090      -0.00000845 </v>
   <v>       0.03550508       0.00533376       0.00412228 </v>
   <v>       0.00846289      -0.00934579       0.00053795 </v>
   <v>       0.00117658      -0.02173136      -0.00135423 </v>
   <v>      -0.00304219      -0.00335125       0.01225627 </v>
   <v>       0.01674560       0.01323077      -0.00936657 </v>
   <v>       0.01061269      -0.00560365      -0.00748495 </v>
   <v>      -0.01720097       0.01682107       0.01291962 </v>
   <v>      -0.01804088      -0.00184818      -0.00539797 </v>
   <v>      -0.01423157      -0.00638430       0.00853371 </v>
   <v>       0.00935777       0.00651768      -0.00563672 </v>
   <v>       0.00361524       0.02332688      -0.00137053 </v>
   <v>       0.01289084       0.01465717      -0.01083327 </v>
   <v>       0.00945202      -0.00176731      -0.00107345 </v>
   <v>       0.00223701      -0.00723900      -0.01855488 </v>
   <v>       0.02065869       0.01334473       0.00634926 </v>
   <v>      -0.01203891       0.02574751      -0.00437669 </v>
   <v>       0.00026600       0.03450062       0.00816158 </v>
   <v>       0.02251512       0.00225571      -0.00331208 </v>
   <v>       0.02079086      -0.00700333       0.00549151 </v>
   <v>       0.01113269      -0.00704850       0.00244360 </v>
   <v>      -0.01387198      -0.00120809      -0.00096347 </v>
   <v>      -0.00239106       0.00709129      -0.00878510 </v>
   <v>      -0.02308131      -0.00397905       0.01029385 </v>
   <v>      -0.00741167      -0.01145800      -0.00712580 </v>
   <v>      -0.00653728      -0.02134379       0.01524925 </v>
   <v>       0.00608287      -0.01132199       0.00645404 </v>
   <v>      -0.00718108      -0.00605906       0.01099656 </v>
   <v>      -0.01210335       0.01263585       0.00232077 </v>
   <v>      -0.01377046       0.00259624       0.00895211 </v>
   <v>       0.01162357       0.00962882      -0.00556934 </v>
   <v>      -0.00080112      -0.00502935       0.00800285 </v>
   <v>       0.01871928      -0.01249213      -0.00273907 </v>
   <v>       0.01267775       0.00437351      -0.00478059 </v>
   <v>       0.01525013      -0.00942262       0.03379770 </v>
   <v>      -0.00382048      -0.00568916       0.00142382 </v>
   <v>       0.00366515       0.02167669      -0.02552760 </v>
   <v>       0.00040473      -0.01278175       0.00473962 </v>
   <v>      -0.02850244       0.01053703       0.00077334 </v>
   <v>      -0.01988205      -0.01340950       0.00422549 </v>
   <v>      -0.02166444       0.01926504      -0.00474551 </v>
   <v>      -0.00021762       0.00206069      -0.00713350 </v>
   <v>      -0.02991165      -0.03346006      -0.00107013 </v>
   <v>       0.02096998       0.01360899       0.00233912 </v>
   <v>       0.00737408       0.01134643       0.00451182 </v>
   <v>      -0.01547110       0.00292689       0.00771811 </v>
   <v>       0.01974597       0.00337468      -0.00675515 </v>
   <v>      -0.01521028       0.00374033      -0.00350782 </v>
   <v>       0.00892905       0.01203221      -0.00641288 </v>
   <v>       0.01274531      -0.00517493      -0.00762282 </v>
   <v>      -0.00189255       0.01183897       0.00492755 </v>
   <v>       0.00978505      -0.00914799      -0.00162516 </v>
   <v>      -0.00091734       0.00678364       0.00962762 </v>
   <v>      -0.00305052       0.01198801       0.00389149 </v>
   <v>      -0.00356630      -0.01473904      -0.00267880 </v>
   <v>      -0.00796324      -0.00241373       0.00374643 </v>
   <v>      -0.02558242      -0.00264565      -0.00299312 </v>
   <v>       0.00387376      -0.00730848       0.00397922 </v>
   <v>       0.01257959      -0.01846253       0.00989433 </v>
   <v>       0.00863513      -0.00708607      -0.00087849 </v>
   <v>      -0.00193968       0.01227300       0.01273942 </v>
   <v>      -0.00078998      -0.00918689       0.00705952 </v>
   <v>      -0.00417446      -0.00710533      -0.01418528 </v>
   <v>      -0.00643154       0.01185423      -0.01237050 </v>
   <v>       0.00036185       0.00634783      -0.00772508 </v>
   <v>       0.00564188      -0.00724699       0.00650956 </v>
   <v>       0.01034764       0.00645719      -0.01429026 </v>
   <v>       0.00737822       0.00543426       0.00925008 </v>
   <v>      -0.00768693      -0.00256291      -0.01206127 </v>
   <v>      -0.01781892      -0.00563847      -0.00433474 </v>
   <v>       0.00802942      -0.00924884       0.00393340 </v>
   <v>      -0.00300355      -0.01230813       0.02060430 </v>
   <v>      -0.00927276       0.00400654      -0.00434732 </v>
   <v>      -0.00696864       0.01540926       0.01893015 </v>
   <v>       0.00580010      -0.01662155      -0.03805176 </v>
   <v>      -0.01743331      -0.00226958       0.01142799 </v>
   <v>       0.00284355       0.01162256      -0.00973133 </v>
   <v>       0.00340005       0.01412220       0.02361777 </v>
   <v>      -0.00458417      -0.00465249       0.00278851 </v>
   <v>      -0.00487279       0.00423103      -0.01311030 </v>
   <v>       0.00838234      -0.00029202      -0.02750949 </v>
   <v>       0.01018155      -0.00253309       0.00545723 </v>
   <v>       0.00862395      -0.00404267       0.02353096 </v>
   <v>       0.00832793       0.00406702      -0.02311016 </v>
   <v>      -0.01998148      -0.01838573      -0.01745078 </v>
   <v>      -0.01000481      -0.00170192       0.00680632 </v>
   <v>      -0.00462126       0.01441240       0.00358368 </v>
   <v>      -0.00922587      -0.00031636       0.01095082 </v>
   <v>      -0.00364670       0.00155147       0.01826565 </v>
   <v>       0.00726073       0.00417551      -0.00651898 </v>
   <v>       0.00158720      -0.00578819      -0.02925435 </v>
  </varray>
  <varray name="stress" >
   <v>       0.40116544       0.21906916      -0.09686364 </v>
   <v>       0.21906917       0.27229842      -0.05900036 </v>
   <v>      -0.09686356      -0.05900055       0.25093357 </v>
  </varray>
  <energy>
   <i name="e_fr_energy">  -1152.43444771 </i>
   <i name="e_wo_entrp">  -1152.43444771 </i>
   <i name="e_0_energy">     -0.00000000 </i>
  </energy>
  <time name="totalsc"> 1960.64 1963.31</time>
 </calculation>
 <calculation>
  <scstep>
   <time name="dav">  556.07  556.14</time>
   <time name="total">  563.35  563.46</time>
   <energy>
    <i name="alphaZ">   5629.17697632 </i>
    <i name="ewald"> -61002.33667614 </i>
    <i name="hartreedc"> -15482.16497432 </i>
    <i name="XCdc">   2851.80425310 </i>
    <i name="pawpsdc"> 111910.64119674 </i>
    <i name="pawaedc">-110658.66938744 </i>
    <i name="eentropy">     -0.00000000 </i>
    <i name="bandstr">  -7050.97084804 </i>
    <i name="atom">  72650.08363186 </i>
    <i name="e_fr_energy">  -1152.43582792 </i>
    <i name="e_wo_entrp">  -1152.43582792 </i>
    <i name="e_0_energy">  -1152.43582792 </i>
   </energy>
  </scstep>
  <scstep>
   <time name="diag">   64.74   64.75</time>
   <time name="diis">  105.38  105.39</time>
   <time name="orth">   33.27   33.27</time>
   <time name="total">  210.54  210.59</time>
   <energy>
    <i name="e_fr_energy">  -1152.43630018 </i>
    <i name="e_wo_entrp">  -1152.43630018 </i>
    <i name="e_0_energy">  -1152.43630018 </i>
   </energy>
  </scstep>
  <scstep>
   <time name="diag">   64.84   64.85</time>
   <time name="diis">  105.48  105.51</time>
   <time name="orth">   33.22   33.22</time>
   <time name="total">  210.71  210.75</time>
   <energy>
    <i name="e_fr_energy">  -1152.43597054 </i>
    <i name="e_wo_entrp">  -1152.43597054 </i>
    <i name="e_0_energy">  -1152.43597054 </i>
   </energy>
  </scstep>
  <scstep>
   <time name="diag">   64.90   64.91</time>
   <time name="diis">   97.51   97.54</time>
   <time name="orth">   33.22   33.21</time>
   <time name="total">  202.81  202.91</time>
   <energy>
    <i name="e_fr_energy">  -1152.43575928 </i>
    <i name="e_wo_entrp">  -1152.43575928 </i>
    <i name="e_0_energy">  -1152.43575928 </i>
   </energy>
  </scstep>
  <scstep>
   <time name="diag">   64.91   64.93</time>
   <time name="diis">   72.15   72.17</time>
   <time name="orth">   33.27   33.27</time>
   <time name="total">  177.50  177.61</time>
   <energy>
    <i name="e_fr_energy">  -1152.43570783 </i>
    <i name="e_wo_entrp">  -1152.43570783 </i>
    <i name="e_0_energy">  -1152.43570783 </i>
   </energy>
  </scstep>
  <scstep>
   <time name="diag">   64.83   64.84</time>
   <time name="diis">   64.32   64.34</time>
   <time name="orth">   33.22   33.22</time>
   <time name="total">  169.56  169.67</time>
   <energy>
    <i name="e_fr_energy">  -1152.43570519 </i>
    <i name="e_wo_entrp">  -1152.43570519 </i>
    <i name="e_0_energy">  -1152.43570519 </i>
   </energy>
  </scstep>
  <scstep>
   <time name="diag">   64.95   64.95</time>
   <time name="diis">   63.59   63.59</time>
   <time name="orth">   33.35   33.35</time>
   <time name="total">  169.11  169.18</time>
   <energy>
    <i name="e_fr_energy">  -1152.43570358 </i>
    <i name="e_wo_entrp">  -1152.43570358 </i>
    <i name="e_0_energy">  -1152.43570358 </i>
   </energy>
  </scstep>
  <scstep>
   <time name="diag">   65.02   65.06</time>
   <time name="diis">   61.70   61.75</time>
   <time name="orth">   33.31   33.31</time>
   <time name="total">  161.08  161.26</time>
   <energy>
    <i name="alphaZ">   5629.17697632 </i>
    <i name="ewald"> -61002.33667614 </i>
    <i name="hartreedc"> -15487.02103188 </i>
    <i name="XCdc">   2852.13216131 </i>
    <i name="pawpsdc"> 111823.97420188 </i>
    <i name="pawaedc">-110571.97046817 </i>
    <i name="eentropy">     -0.00000000 </i>
    <i name="bandstr">  -7046.47449669 </i>
    <i name="atom">  72650.08363186 </i>
    <i name="e_fr_energy">  -1152.43570151 </i>
    <i name="e_wo_entrp">  -1152.43570151 </i>
    <i name="e_0_energy">  -1152.43570151 </i>
   </energy>
  </scstep>
  <structure>
   <crystal>
    <varray name="basis" >
     <v>      11.20950150       0.00053837      -0.00099386 </v>
     <v>       0.00054820      11.21089853       0.00049079 </v>
     <v>      -0.00141992       0.00069936      15.96848595 </v>
    </varray>
    <i name="volume">   2006.73699162 </i>
    <varray name="rec_basis" >
     <v>       0.08921003      -0.00000436       0.00000793 </v>
     <v>      -0.00000428       0.08919892      -0.00000391 </v>
     <v>       0.00000555      -0.00000274       0.06262335 </v>
    </varray>
   </crystal>
   <varray name="positions" >
    <v>       0.99441109       0.25121391       0.12747524 </v>
    <v>       0.00056464       0.24983978       0.62489188 </v>
    <v>       0.01028367       0.74986178       0.12633877 </v>
    <v>       0.00159376       0.74997254       0.62464242 </v>
    <v>       0.50385374       0.24867070       0.12972056 </v>
    <v>       0.50091104       0.24992657       0.62287223 </v>
    <v>       0.48830746       0.75120503       0.12523621 </v>
    <v>       0.49824480       0.74877268       0.62511219 </v>
    <v>       0.99858350       0.24983000       0.37404008 </v>
    <v>       0.99537796       0.25213386       0.87426788 </v>
    <v>       0.00455629       0.75015457       0.37676215 </v>
    <v>       0.00453762       0.74927986       0.87238870 </v>
    <v>       0.50283234       0.24725781       0.37602273 </v>
    <v>       0.50337403       0.25380234       0.87027619 </v>
    <v>       0.49480759       0.75129229       0.37782193 </v>
    <v>       0.49284673       0.74756084       0.87212652 </v>
    <v>       0.25033947       0.99511813       0.12886972 </v>
    <v>       0.25243259       0.00054707       0.62347911 </v>
    <v>       0.24599709       0.50451420       0.12948063 </v>
    <v>       0.25299123       0.49887319       0.62487060 </v>
    <v>       0.74813734       0.01384059       0.12849326 </v>
    <v>       0.74780943       0.00217337       0.62385244 </v>
    <v>       0.75285409       0.48630632       0.12805938 </v>
    <v>       0.74712072       0.49753649       0.62485812 </v>
    <v>       0.25277549       0.00039235       0.37616117 </v>
    <v>       0.25103347       0.99364701       0.87128189 </v>
    <v>       0.25171670       0.49954093       0.37549540 </v>
    <v>       0.25049991       0.50534436       0.87042322 </v>
    <v>       0.74742426       0.00724975       0.37679378 </v>
    <v>       0.74816603       0.00605383       0.87150308 </v>
    <v>       0.74889881       0.49193197       0.37625655 </v>
    <v>       0.74737340       0.49427913       0.87142547 </v>
    <v>       0.99391727       0.99524745       0.00129966 </v>
    <v>       0.99993981       0.00003433       0.49994321 </v>
    <v>       0.00021501       0.50124153       0.00045866 </v>
    <v>       0.99960991       0.50056688       0.50008938 </v>
    <v>       0.50070972       0.00113113       0.00019429 </v>
    <v>       0.50092838       0.50079560       0.50074107 </v>
    <v>       0.24228514       0.23633975       0.99938565 </v>
    <v>       0.25095426       0.24830133       0.49930437 </v>
    <v>       0.25032384       0.74905131       0.99963366 </v>
    <v>       0.25089801       0.75113238       0.50046876 </v>
    <v>       0.74770116       0.25073308       0.00046241 </v>
    <v>       0.74916808       0.24857646       0.49920126 </v>
    <v>       0.75032860       0.75124729       0.99129131 </v>
    <v>       0.74818885       0.75062874       0.50283627 </v>
    <v>       0.25102331       0.25078849       0.25088967 </v>
    <v>       0.25276934       0.25227702       0.75057975 </v>
    <v>       0.24994999       0.75006851       0.25183725 </v>
    <v>       0.25075006       0.74873152       0.74849010 </v>
    <v>       0.74896210       0.25151787       0.74883646 </v>
    <v>       0.74927590       0.74924624       0.25778742 </v>
    <v>       0.74816534       0.74861163       0.74669091 </v>
    <v>       0.99867739       0.00151388       0.24931544 </v>
    <v>       0.99928856       0.99972398       0.75018233 </v>
    <v>       0.99891904       0.49912560       0.24994498 </v>
    <v>       0.99917826       0.50028379       0.74950725 </v>
    <v>       0.50095292       0.00044277       0.25030554 </v>
    <v>       0.50021531       0.99976351       0.74810043 </v>
    <v>       0.50056927       0.49771197       0.24753583 </v>
    <v>       0.50030700       0.99906975       0.49999994 </v>
    <v>       0.51438333       0.51062006       0.00225708 </v>
    <v>       0.75006817       0.24986903       0.25148231 </v>
    <v>       0.49949724       0.49975209       0.75062812 </v>
    <v>       0.11294925       0.13971781       0.24610585 </v>
    <v>       0.11176066       0.13892832       0.75929921 </v>
    <v>       0.11236764       0.63787372       0.24931637 </v>
    <v>       0.10983672       0.63962075       0.75106172 </v>
    <v>       0.61289467       0.13407813       0.24944777 </v>
    <v>       0.61166094       0.13815762       0.75139626 </v>
    <v>       0.61696759       0.63818816       0.23132719 </v>
    <v>       0.61169199       0.64118771       0.75446419 </v>
    <v>       0.38792753       0.36116575       0.25748166 </v>
    <v>       0.38786262       0.35980318       0.74478909 </v>
    <v>       0.38666483       0.86178894       0.24950620 </v>
    <v>       0.38871923       0.86073790       0.75057880 </v>
    <v>       0.88843543       0.36528020       0.24987326 </v>
    <v>       0.89027843       0.36070838       0.75079379 </v>
    <v>       0.88330191       0.85958075       0.23797195 </v>
    <v>       0.88964571       0.85866699       0.74866531 </v>
    <v>       0.36099244       0.11170636       0.24984678 </v>
    <v>       0.36044544       0.11054799       0.75418997 </v>
    <v>       0.36242620       0.61313894       0.24908821 </v>
    <v>       0.35911245       0.61284611       0.74999295 </v>
    <v>       0.86477228       0.11131885       0.25083432 </v>
    <v>       0.86130618       0.11023395       0.74946375 </v>
    <v>       0.86042194       0.61722695       0.23701486 </v>
    <v>       0.85899552       0.60986497       0.75009567 </v>
    <v>       0.13879889       0.38936610       0.25150430 </v>
    <v>       0.13822345       0.38981875       0.75240968 </v>
    <v>       0.13691936       0.88751215       0.25095792 </v>
    <v>       0.13873222       0.88949548       0.75040261 </v>
    <v>       0.63558210       0.38829781       0.24863141 </v>
    <v>       0.64052105       0.38771144       0.75097761 </v>
    <v>       0.63940271       0.88147513       0.23640682 </v>
    <v>       0.64117948       0.88931796       0.74980629 </v>
    <v>       0.36044107       0.38964335       0.49807579 </v>
    <v>       0.35977503       0.89060336       0.00032928 </v>
    <v>       0.35856093       0.88794136       0.49926740 </v>
    <v>       0.86376118       0.38890398       0.99889990 </v>
    <v>       0.86027261       0.39119780       0.50082851 </v>
    <v>       0.85529066       0.88689596       0.01504260 </v>
    <v>       0.85896801       0.89037565       0.50005058 </v>
    <v>       0.14295837       0.10589006       0.99642358 </v>
    <v>       0.13885929       0.10867840       0.49840565 </v>
    <v>       0.13695222       0.61270295       0.99974592 </v>
    <v>       0.14001535       0.60960080       0.49949139 </v>
    <v>       0.64245226       0.10776725       0.99917998 </v>
    <v>       0.64096827       0.11135451       0.50058679 </v>
    <v>       0.64671144       0.61668427       0.01693370 </v>
    <v>       0.64295556       0.60961750       0.49924950 </v>
    <v>       0.12178341       0.36542229       0.99834242 </v>
    <v>       0.10923105       0.36083621       0.49811737 </v>
    <v>       0.10817594       0.85976382       0.99941233 </v>
    <v>       0.10863987       0.85934032       0.50014168 </v>
    <v>       0.60945916       0.35864648       0.00082643 </v>
    <v>       0.61024996       0.36091764       0.49870476 </v>
    <v>       0.61282424       0.85692723       0.00988980 </v>
    <v>       0.61161687       0.85683690       0.50071868 </v>
    <v>       0.39539439       0.14991699       0.99812523 </v>
    <v>       0.38771441       0.14051667       0.49863306 </v>
    <v>       0.38363902       0.63389301       0.00075951 </v>
    <v>       0.38974621       0.64015820       0.49980427 </v>
    <v>       0.89273336       0.13907732       0.00011086 </v>
    <v>       0.89111353       0.13993691       0.49965384 </v>
    <v>       0.88735440       0.64394854       0.01046510 </v>
    <v>       0.89087128       0.64242454       0.50034066 </v>
    <v>       0.00684847       0.00385295       0.12428818 </v>
    <v>       0.00227001       0.00247112       0.62550885 </v>
    <v>       0.00486946       0.49492017       0.12428841 </v>
    <v>       0.00098941       0.50053425       0.62551650 </v>
    <v>       0.49410872       0.00409013       0.12370509 </v>
    <v>       0.49847295       0.00080688       0.62700932 </v>
    <v>       0.47977915       0.48290885       0.12159396 </v>
    <v>       0.50212680       0.50265015       0.62281695 </v>
    <v>       0.99762586       0.99588373       0.37361613 </v>
    <v>       0.99048614       0.99177827       0.87732311 </v>
    <v>       0.99421433       0.50616490       0.37364617 </v>
    <v>       0.99553414       0.50533843       0.87626122 </v>
    <v>       0.50522238       0.99430846       0.37200585 </v>
    <v>       0.50340363       0.99303477       0.87680041 </v>
    <v>       0.50571031       0.50976329       0.37248366 </v>
    <v>       0.49289528       0.49389744       0.88128749 </v>
    <v>       0.24584585       0.24708766       0.37437648 </v>
    <v>       0.26445660       0.26660035       0.87959259 </v>
    <v>       0.24900534       0.74901954       0.37514861 </v>
    <v>       0.24955991       0.75148795       0.87493636 </v>
    <v>       0.75055619       0.25053819       0.37635873 </v>
    <v>       0.75260688       0.24950157       0.87491477 </v>
    <v>       0.74803467       0.74809497       0.37327392 </v>
    <v>       0.75207880       0.75122103       0.87630958 </v>
    <v>       0.26136579       0.26255330       0.12099431 </v>
    <v>       0.24490842       0.24691487       0.62565119 </v>
    <v>       0.24812840       0.75190559       0.12505389 </v>
    <v>       0.24837688       0.75008372       0.62497299 </v>
    <v>       0.75287182       0.24913225       0.12361493 </v>
    <v>       0.75063145       0.25044562       0.62521687 </v>
    <v>       0.74895301       0.74795784       0.62519487 </v>
   </varray>
  </structure>
  <varray name="forces" >
   <v>      -0.00058884       0.00537935       0.00758587 </v>
   <v>       0.01064562      -0.00054798      -0.00389511 </v>
   <v>      -0.00618318       0.00123768       0.00082168 </v>
   <v>      -0.00255050      -0.00215296      -0.00213496 </v>
   <v>       0.00223024       0.00695244      -0.00530630 </v>
   <v>      -0.00497442      -0.00314599       0.00679729 </v>
   <v>       0.00525750      -0.00265194      -0.00069295 </v>
   <v>      -0.00083866       0.00223575       0.00273598 </v>
   <v>       0.00076421       0.00440150       0.00086576 </v>
   <v>       0.00107985      -0.00266275       0.01244788 </v>
   <v>      -0.00172511      -0.00379079       0.00474384 </v>
   <v>       0.00405031       0.00892649      -0.00642733 </v>
   <v>       0.00070783      -0.00409186      -0.02105147 </v>
   <v>      -0.01885503       0.00370023       0.02016171 </v>
   <v>       0.00425654       0.00270666       0.00841374 </v>
   <v>      -0.00482152       0.00653951      -0.00126226 </v>
   <v>       0.00133144       0.01178536      -0.00555017 </v>
   <v>      -0.00671698       0.00615756       0.00485556 </v>
   <v>       0.00170398      -0.01223702      -0.00416444 </v>
   <v>      -0.00177848      -0.00179777       0.00406850 </v>
   <v>      -0.00158280       0.00362059       0.00294941 </v>
   <v>       0.00898245      -0.00819291      -0.00663152 </v>
   <v>       0.00378410      -0.00098613      -0.00307881 </v>
   <v>       0.00414893       0.00167360      -0.00194105 </v>
   <v>      -0.00704813       0.01433498       0.00022709 </v>
   <v>       0.00320384       0.00269866      -0.00288126 </v>
   <v>      -0.00127781      -0.01000584      -0.00866378 </v>
   <v>      -0.00989079      -0.00707990       0.01138025 </v>
   <v>       0.01534909       0.00922210      -0.00532481 </v>
   <v>      -0.00086120       0.00624519      -0.00308184 </v>
   <v>       0.00032100      -0.01341127      -0.00853216 </v>
   <v>       0.00961219       0.00035220       0.00988225 </v>
   <v>      -0.00031634       0.01795233      -0.00450665 </v>
   <v>      -0.02116127      -0.00266590      -0.00718308 </v>
   <v>      -0.00961233      -0.03512248       0.01532056 </v>
   <v>      -0.01400123       0.00734221      -0.00151971 </v>
   <v>      -0.01533288       0.01950384       0.00494752 </v>
   <v>       0.02235757       0.00412297      -0.01470212 </v>
   <v>       0.01081555       0.03387934      -0.01887954 </v>
   <v>      -0.02589547      -0.00306706      -0.01682328 </v>
   <v>       0.00695957      -0.01126720      -0.00368804 </v>
   <v>      -0.03676488       0.00353732       0.01566621 </v>
   <v>       0.00525892       0.01659351       0.03810003 </v>
   <v>       0.03087930       0.00491414      -0.04996095 </v>
   <v>       0.00414420      -0.02202085      -0.02207363 </v>
   <v>       0.04851935       0.00200724      -0.01214738 </v>
   <v>      -0.00694477       0.00399072      -0.00807791 </v>
   <v>      -0.01308215       0.00646618       0.02682235 </v>
   <v>      -0.01313853      -0.00385193       0.00702391 </v>
   <v>      -0.02738897       0.01731583      -0.01418826 </v>
   <v>       0.02147263      -0.00378305       0.00777732 </v>
   <v>       0.01141388      -0.01161301       0.05493952 </v>
   <v>       0.03245344       0.01810474      -0.01811422 </v>
   <v>      -0.03669459       0.03135905       0.03328770 </v>
   <v>      -0.00059707      -0.01554154      -0.00866352 </v>
   <v>      -0.01973975      -0.02285504      -0.00368547 </v>
   <v>       0.00365467       0.00533612      -0.01034984 </v>
   <v>       0.03173642       0.03659923      -0.00697358 </v>
[...]
       <r>   -15.8254     0.0000    32.0000 </r>
       <r>   -15.6735     0.0000    32.0000 </r>
       <r>   -15.5216     0.0000    32.0000 </r>
       <r>   -15.3697     0.0000    32.0000 </r>
       <r>   -15.2178     0.6350    32.0965 </r>
       <r>   -15.0659    16.9794    34.6757 </r>
       <r>   -14.9140    41.2189    40.9370 </r>
       <r>   -14.7621    55.3545    49.3455 </r>
       <r>   -14.6102    38.0195    55.1208 </r>
       <r>   -14.4583    31.3500    59.8829 </r>
       <r>   -14.3064    30.7217    64.5496 </r>
       <r>   -14.1545    69.1314    75.0509 </r>
       <r>   -14.0026   127.3182    94.3910 </r>
       <r>   -13.8507   136.8137   115.1734 </r>
       <r>   -13.6988    58.1892   124.0125 </r>
       <r>   -13.5469     6.7821   125.0427 </r>
       <r>   -13.3950     6.2690   125.9950 </r>
       <r>   -13.2431     0.0329   126.0000 </r>
       <r>   -13.0912     0.0000   126.0000 </r>
       <r>   -12.9393     0.0000   126.0000 </r>
       <r>   -12.7874     0.0005   126.0001 </r>
       <r>   -12.6355     8.8403   127.3429 </r>
       <r>   -12.4836    81.1966   139.6770 </r>
       <r>   -12.3317   173.7209   166.0657 </r>
       <r>   -12.1798   138.8595   187.1589 </r>
       <r>   -12.0279   134.2953   207.5588 </r>
       <r>   -11.8760    83.7823   220.2856 </r>
       <r>   -11.7240    11.2780   221.9987 </r>
       <r>   -11.5721     0.0083   222.0000 </r>
       <r>   -11.4202     0.0000   222.0000 </r>
       <r>   -11.2683     0.0000   222.0000 </r>
       <r>   -11.1164     0.0000   222.0000 </r>
       <r>   -10.9645     0.0000   222.0000 </r>
       <r>   -10.8126     0.0000   222.0000 </r>
       <r>   -10.6607     0.0000   222.0000 </r>
       <r>   -10.5088     0.0000   222.0000 </r>
       <r>   -10.3569     0.0000   222.0000 </r>
       <r>   -10.2050     0.0000   222.0000 </r>
       <r>   -10.0531     0.0000   222.0000 </r>
       <r>    -9.9012     0.0000   222.0000 </r>
       <r>    -9.7493     0.0000   222.0000 </r>
       <r>    -9.5974     0.0000   222.0000 </r>
       <r>    -9.4455     0.0000   222.0000 </r>
       <r>    -9.2936     0.0000   222.0000 </r>
       <r>    -9.1417     0.0000   222.0000 </r>
       <r>    -8.9898     0.0000   222.0000 </r>
       <r>    -8.8379     0.0000   222.0000 </r>
       <r>    -8.6860     0.0000   222.0000 </r>
       <r>    -8.5341     0.0000   222.0000 </r>
       <r>    -8.3822     0.0000   222.0000 </r>
       <r>    -8.2303     0.0000   222.0000 </r>
       <r>    -8.0784     0.0000   222.0000 </r>
       <r>    -7.9265     0.0000   222.0000 </r>
       <r>    -7.7746     0.0000   222.0000 </r>
       <r>    -7.6227     0.0000   222.0000 </r>
       <r>    -7.4708     0.0000   222.0000 </r>
       <r>    -7.3189     0.0000   222.0000 </r>
       <r>    -7.1670     0.0000   222.0000 </r>
       <r>    -7.0151     0.0000   222.0000 </r>
       <r>    -6.8631     0.0000   222.0000 </r>
       <r>    -6.7112     0.0000   222.0000 </r>
       <r>    -6.5593     0.0000   222.0000 </r>
       <r>    -6.4074     0.0000   222.0000 </r>
       <r>    -6.2555     0.0000   222.0000 </r>
       <r>    -6.1036     0.0000   222.0000 </r>
       <r>    -5.9517     0.0000   222.0000 </r>
       <r>    -5.7998     0.0000   222.0000 </r>
       <r>    -5.6479     0.0000   222.0000 </r>
       <r>    -5.4960     0.0000   222.0000 </r>
       <r>    -5.3441     0.0000   222.0000 </r>
       <r>    -5.1922     0.0000   222.0000 </r>
       <r>    -5.0403     0.0000   222.0000 </r>
       <r>    -4.8884     0.0000   222.0000 </r>
       <r>    -4.7365     0.0000   222.0000 </r>
       <r>    -4.5846     0.0000   222.0000 </r>
       <r>    -4.4327     0.0000   222.0000 </r>
       <r>    -4.2808     0.0000   222.0000 </r>
       <r>    -4.1289     0.0000   222.0000 </r>
       <r>    -3.9770     0.0000   222.0000 </r>
       <r>    -3.8251     0.0000   222.0000 </r>
       <r>    -3.6732     0.0000   222.0000 </r>
       <r>    -3.5213     0.0000   222.0000 </r>
       <r>    -3.3694     0.0000   222.0000 </r>
       <r>    -3.2175     0.0000   222.0000 </r>
       <r>    -3.0656     0.0000   222.0000 </r>
       <r>    -2.9137     0.0000   222.0000 </r>
       <r>    -2.7618     0.0000   222.0000 </r>
       <r>    -2.6099     0.0000   222.0000 </r>
       <r>    -2.4580     0.0000   222.0000 </r>
       <r>    -2.3061     2.1407   222.3252 </r>
       <r>    -2.1542    18.0631   225.0690 </r>
       <r>    -2.0022    24.7838   228.8338 </r>
       <r>    -1.8503    39.3906   234.8173 </r>
       <r>    -1.6984    58.9581   243.7732 </r>
       <r>    -1.5465    56.5496   252.3633 </r>
       <r>    -1.3946    62.8823   261.9153 </r>
       <r>    -1.2427    68.5010   272.3208 </r>
       <r>    -1.0908    66.6963   282.4522 </r>
       <r>    -0.9389    76.4580   294.0664 </r>
       <r>    -0.7870    76.2493   305.6489 </r>
       <r>    -0.6351    93.4732   319.8478 </r>
       <r>    -0.4832   123.4435   338.5993 </r>
       <r>    -0.3313    95.7469   353.1435 </r>
       <r>    -0.1794    55.4968   361.5736 </r>
       <r>    -0.0275    47.4931   368.7880 </r>
       <r>     0.1244    42.9620   375.3140 </r>
       <r>     0.2763    45.2992   382.1951 </r>
       <r>     0.4282    45.1423   389.0524 </r>
       <r>     0.5801    62.8507   398.5996 </r>
       <r>     0.7320    48.5613   405.9762 </r>
       <r>     0.8839    45.4593   412.8816 </r>
       <r>     1.0358    55.6262   421.3314 </r>
       <r>     1.1877    74.2300   432.6072 </r>
       <r>     1.3396    87.8345   445.9495 </r>
       <r>     1.4915   100.5770   461.2275 </r>
       <r>     1.6434    86.2697   474.3321 </r>
       <r>     1.7953    74.5590   485.6579 </r>
       <r>     1.9472    54.5221   493.9399 </r>
       <r>     2.0991    37.9436   499.7037 </r>
       <r>     2.2510    23.6256   503.2925 </r>
       <r>     2.4029     4.6529   503.9993 </r>
       <r>     2.5548     0.0048   504.0000 </r>
       <r>     2.7067     0.0000   504.0000 </r>
       <r>     2.8587     0.0000   504.0000 </r>
       <r>     3.0106     0.0000   504.0000 </r>
       <r>     3.1625     0.0000   504.0000 </r>
       <r>     3.3144     0.0000   504.0000 </r>
       <r>     3.4663     0.0000   504.0000 </r>
       <r>     3.6182     0.0000   504.0000 </r>
       <r>     3.7701     0.0000   504.0000 </r>
       <r>     3.9220     0.0000   504.0000 </r>
       <r>     4.0739     0.0000   504.0000 </r>
       <r>     4.2258     0.0000   504.0000 </r>
       <r>     4.3777     0.0006   504.0001 </r>
       <r>     4.5296     6.7462   505.0249 </r>
       <r>     4.6815    21.9017   508.3518 </r>
       <r>     4.8334    43.9974   515.0352 </r>
       <r>     4.9853    20.7201   518.1826 </r>
       <r>     5.1372    31.8474   523.0203 </r>
       <r>     5.2891    47.8853   530.2942 </r>
       <r>     5.4410    70.3882   540.9864 </r>
       <r>     5.5929    62.3064   550.4510 </r>
       <r>     5.7448    62.5142   559.9471 </r>
       <r>     5.8967    84.1054   572.7230 </r>
       <r>     6.0486   104.0220   588.5242 </r>
       <r>     6.2005    82.0132   600.9823 </r>
       <r>     6.3524    59.1426   609.9662 </r>
       <r>     6.5043    33.1630   615.0038 </r>
       <r>     6.6562    25.0829   618.8140 </r>
       <r>     6.8081    19.8658   621.8316 </r>
       <r>     6.9600    24.5865   625.5664 </r>
       <r>     7.1119    20.1237   628.6232 </r>
       <r>     7.2638    21.1762   631.8400 </r>
       <r>     7.4157    15.2634   634.1585 </r>
       <r>     7.5676    11.9543   635.9744 </r>
       <r>     7.7196    12.2063   637.8286 </r>
       <r>     7.8715    18.5437   640.6455 </r>
       <r>     8.0234    23.8749   644.2721 </r>
       <r>     8.1753    23.7747   647.8836 </r>
       <r>     8.3272    26.9745   651.9811 </r>
       <r>     8.4791    26.4893   656.0049 </r>
       <r>     8.6310    20.8018   659.1647 </r>
       <r>     8.7829    26.0785   663.1261 </r>
       <r>     8.9348    26.5679   667.1619 </r>
       <r>     9.0867    35.2307   672.5135 </r>
       <r>     9.2386    41.1949   678.7712 </r>
       <r>     9.3905    41.0052   685.0000 </r>
       <r>     9.5424    40.6703   691.1780 </r>
       <r>     9.6943    43.8352   697.8367 </r>
       <r>     9.8462    56.1075   706.3596 </r>
       <r>     9.9981    65.3824   716.2914 </r>
       <r>    10.1500    76.1328   727.8562 </r>
       <r>    10.3019    70.3221   738.5383 </r>
       <r>    10.4538    55.6285   746.9884 </r>
       <r>    10.6057    55.0332   755.3482 </r>
       <r>    10.7576    60.2455   764.4996 </r>
       <r>    10.9095    23.0257   767.9973 </r>
       <r>    11.0614     0.0176   768.0000 </r>
       <r>    11.2133     0.0000   768.0000 </r>
       <r>    11.3652     0.0000   768.0000 </r>
       <r>    11.5171     0.0000   768.0000 </r>
       <r>    11.6690     0.0000   768.0000 </r>
       <r>    11.8209     0.0000   768.0000 </r>
       <r>    11.9728     0.0000   768.0000 </r>
       <r>    12.1247     0.0000   768.0000 </r>
       <r>    12.2766     0.0000   768.0000 </r>
       <r>    12.4285     0.0000   768.0000 </r>
       <r>    12.5805     0.0000   768.0000 </r>
       <r>    12.7324     0.0000   768.0000 </r>
       <r>    12.8843     0.0000   768.0000 </r>
      </set>
     </set>
    </array>
   </total>
  </dos>
 </calculation>
 <structure name="finalpos" >
  <crystal>
   <varray name="basis" >
    <v>      11.20970900       0.00113408      -0.00123528 </v>
    <v>       0.00114399      11.21071629       0.00043583 </v>
    <v>      -0.00176388       0.00062104      15.96752538 </v>
   </varray>
   <i name="volume">   2006.62078138 </i>
   <varray name="rec_basis" >
    <v>       0.08920838      -0.00000910       0.00000985 </v>
    <v>      -0.00000902       0.08920037      -0.00000347 </v>
    <v>       0.00000690      -0.00000244       0.06262711 </v>
   </varray>
  </crystal>
  <varray name="positions" >
   <v>       0.99444340       0.25121956       0.12749136 </v>
   <v>       0.00063387       0.24983997       0.62488341 </v>
   <v>       0.01023061       0.74988391       0.12634417 </v>
   <v>       0.00156877       0.74996211       0.62463369 </v>
   <v>       0.50384022       0.24870713       0.12968364 </v>
   <v>       0.50086902       0.24991191       0.62290449 </v>
   <v>       0.48834713       0.75120329       0.12523245 </v>
   <v>       0.49824797       0.74877072       0.62513275 </v>
   <v>       0.99862223       0.24985493       0.37405410 </v>
   <v>       0.99538879       0.25211026       0.87430594 </v>
   <v>       0.00456104       0.75012889       0.37675822 </v>
   <v>       0.00454853       0.74932751       0.87239087 </v>
   <v>       0.50279600       0.24724007       0.37597751 </v>
   <v>       0.50329510       0.25382004       0.87032915 </v>
   <v>       0.49481148       0.75130786       0.37784766 </v>
   <v>       0.49282814       0.74759263       0.87212726 </v>
   <v>       0.25033733       0.99518257       0.12884576 </v>
   <v>       0.25242594       0.00061334       0.62349001 </v>
   <v>       0.24602307       0.50446872       0.12946602 </v>
   <v>       0.25302084       0.49882865       0.62488008 </v>
   <v>       0.74812263       0.01379356       0.12848142 </v>
   <v>       0.74781497       0.00214648       0.62383805 </v>
   <v>       0.75286411       0.48635585       0.12803691 </v>
   <v>       0.74710649       0.49754341       0.62486899 </v>
   <v>       0.25275303       0.00046932       0.37615703 </v>
   <v>       0.25103531       0.99366975       0.87128887 </v>
   <v>       0.25174450       0.49948391       0.37548203 </v>
   <v>       0.25046294       0.50532365       0.87046660 </v>
   <v>       0.74746972       0.00727644       0.37677843 </v>
   <v>       0.74813815       0.00606282       0.87150438 </v>
   <v>       0.74887725       0.49188692       0.37623292 </v>
   <v>       0.74741306       0.49429679       0.87145516 </v>
   <v>       0.99393672       0.99526639       0.00128520 </v>
   <v>       0.99989763       0.00003015       0.49993374 </v>
   <v>       0.00018035       0.50116511       0.00047575 </v>
   <v>       0.99960625       0.50056178       0.50008524 </v>
   <v>       0.50070996       0.00116272       0.00020051 </v>
   <v>       0.50097165       0.50079472       0.50070360 </v>
   <v>       0.24227462       0.23638711       0.99936556 </v>
   <v>       0.25092726       0.24831875       0.49927654 </v>
   <v>       0.25037395       0.74900170       0.99959770 </v>
   <v>       0.25082933       0.75114230       0.50048626 </v>
   <v>       0.74766373       0.25079947       0.00051420 </v>
   <v>       0.74921488       0.24857035       0.49915258 </v>
   <v>       0.75034401       0.75121455       0.99125773 </v>
   <v>       0.74829927       0.75062778       0.50283673 </v>
   <v>       0.25100748       0.25078517       0.25087128 </v>
   <v>       0.25276185       0.25229938       0.75059936 </v>
   <v>       0.24992588       0.75007449       0.25183040 </v>
   <v>       0.25073716       0.74872650       0.74847658 </v>
   <v>       0.74894820       0.25151962       0.74883640 </v>
   <v>       0.74930275       0.74922990       0.25786606 </v>
   <v>       0.74820953       0.74862685       0.74664952 </v>
   <v>       0.99865126       0.00152711       0.24936734 </v>
   <v>       0.99930613       0.99970314       0.75018629 </v>
   <v>       0.99885474       0.49912468       0.24992996 </v>
   <v>       0.99915933       0.50028966       0.74949505 </v>
   <v>       0.50106193       0.00047833       0.25029197 </v>
   <v>       0.50021143       0.99976303       0.74813392 </v>
   <v>       0.50057476       0.49768203       0.24750564 </v>
   <v>       0.50029920       0.99906430       0.50001706 </v>
   <v>       0.51436376       0.51062969       0.00226974 </v>
   <v>       0.75009147       0.24986273       0.25148322 </v>
   <v>       0.49945641       0.49972870       0.75061683 </v>
   <v>       0.11298036       0.13967220       0.24615795 </v>
   <v>       0.11182388       0.13895304       0.75930352 </v>
   <v>       0.11248685       0.63785348       0.24932419 </v>
   <v>       0.10986951       0.63957115       0.75107909 </v>
   <v>       0.61291705       0.13394923       0.24945600 </v>
   <v>       0.61168990       0.13813765       0.75138940 </v>
   <v>       0.61701898       0.63814873       0.23131372 </v>
   <v>       0.61166937       0.64116293       0.75449926 </v>
   <v>       0.38793293       0.36119443       0.25744163 </v>
   <v>       0.38791285       0.35978390       0.74475974 </v>
   <v>       0.38658353       0.86185023       0.24954267 </v>
   <v>       0.38871320       0.86078418       0.75057003 </v>
   <v>       0.88844381       0.36534938       0.24989379 </v>
   <v>       0.89026739       0.36071037       0.75078081 </v>
   <v>       0.88325800       0.85962761       0.23794860 </v>
   <v>       0.88962066       0.85867157       0.74863989 </v>
   <v>       0.36103491       0.11169720       0.24984057 </v>
   <v>       0.36046371       0.11053562       0.75412456 </v>
   <v>       0.36249224       0.61324252       0.24910114 </v>
   <v>       0.35914819       0.61287171       0.74998110 </v>
   <v>       0.86486999       0.11136933       0.25083815 </v>
   <v>       0.86135411       0.11029591       0.74945690 </v>
   <v>       0.86047031       0.61728206       0.23701972 </v>
   <v>       0.85898697       0.60987177       0.75010678 </v>
   <v>       0.13878339       0.38932917       0.25149350 </v>
   <v>       0.13825609       0.38981671       0.75237459 </v>
   <v>       0.13689007       0.88743637       0.25096750 </v>
   <v>       0.13870924       0.88945756       0.75039598 </v>
   <v>       0.63548306       0.38828306       0.24866750 </v>
   <v>       0.64050926       0.38768462       0.75099425 </v>
   <v>       0.63935858       0.88141841       0.23642914 </v>
   <v>       0.64112840       0.88934670       0.74981265 </v>
   <v>       0.36041178       0.38967453       0.49811360 </v>
   <v>       0.35980749       0.89059480       0.00030798 </v>
   <v>       0.35857971       0.88793440       0.49929189 </v>
   <v>       0.86382858       0.38884473       0.99888055 </v>
   <v>       0.86027477       0.39118735       0.50082596 </v>
   <v>       0.85532688       0.88680117       0.01513686 </v>
   <v>       0.85894918       0.89036011       0.50006006 </v>
   <v>       0.14285756       0.10583505       0.99634071 </v>
   <v>       0.13893864       0.10868306       0.49842238 </v>
   <v>       0.13688853       0.61282507       0.99974304 </v>
   <v>       0.14002784       0.60959797       0.49949930 </v>
   <v>       0.64233410       0.10782693       0.99915701 </v>
   <v>       0.64091243       0.11134381       0.50058552 </v>
   <v>       0.64668997       0.61669776       0.01691505 </v>
   <v>       0.64292144       0.60957331       0.49925042 </v>
   <v>       0.12183783       0.36547133       0.99835641 </v>
   <v>       0.10925281       0.36077892       0.49815073 </v>
   <v>       0.10825486       0.85979750       0.99938896 </v>
   <v>       0.10864434       0.85931108       0.50012698 </v>
   <v>       0.60948220       0.35871379       0.00079057 </v>
   <v>       0.61022624       0.36094824       0.49869484 </v>
   <v>       0.61287051       0.85692602       0.00990842 </v>
   <v>       0.61157463       0.85684193       0.50071581 </v>
   <v>       0.39539862       0.14991576       0.99815340 </v>
   <v>       0.38771471       0.14056862       0.49865892 </v>
   <v>       0.38358703       0.63386180       0.00075038 </v>
   <v>       0.38975470       0.64010159       0.49981029 </v>
   <v>       0.89267382       0.13897405       0.00010697 </v>
   <v>       0.89110089       0.13992114       0.49967930 </v>
   <v>       0.88730219       0.64395383       0.01048868 </v>
   <v>       0.89088734       0.64239733       0.50033771 </v>
   <v>       0.00686592       0.00388436       0.12426356 </v>
   <v>       0.00228114       0.00244901       0.62553023 </v>
   <v>       0.00485588       0.49491157       0.12426570 </v>
   <v>       0.00096148       0.50057937       0.62552299 </v>
   <v>       0.49410987       0.00408156       0.12369794 </v>
   <v>       0.49849940       0.00078954       0.62700939 </v>
   <v>       0.47981029       0.48295040       0.12154833 </v>
   <v>       0.50215649       0.50266750       0.62282306 </v>
   <v>       0.99760329       0.99585862       0.37357916 </v>
   <v>       0.99041274       0.99174437       0.87735778 </v>
   <v>       0.99426604       0.50612993       0.37363693 </v>
   <v>       0.99551505       0.50529437       0.87628725 </v>
   <v>       0.50518338       0.99431746       0.37201341 </v>
   <v>       0.50338433       0.99309154       0.87681872 </v>
   <v>       0.50571099       0.50970692       0.37244929 </v>
   <v>       0.49280661       0.49389721       0.88128585 </v>
   <v>       0.24588044       0.24714231       0.37438691 </v>
   <v>       0.26448736       0.26665809       0.87962274 </v>
   <v>       0.24900304       0.74899957       0.37514347 </v>
   <v>       0.24955828       0.75149238       0.87494616 </v>
   <v>       0.75057612       0.25053421       0.37638463 </v>
   <v>       0.75263110       0.24948734       0.87488442 </v>
   <v>       0.74805414       0.74808229       0.37318964 </v>
   <v>       0.75211247       0.75124336       0.87633889 </v>
   <v>       0.26127100       0.26245212       0.12098679 </v>
   <v>       0.24488563       0.24691183       0.62565586 </v>
   <v>       0.24811975       0.75197748       0.12505756 </v>
   <v>       0.24835861       0.75007395       0.62496481 </v>
   <v>       0.75284174       0.24913837       0.12358623 </v>
   <v>       0.75063144       0.25046545       0.62522694 </v>
   <v>       0.74893308       0.74792455       0.62521504 </v>
  </varray>
 </structure>
</modeling>
