       N       E                     dE             d eps       ncg     rms          rms(c)
DAV:   1    -0.111895861020E+04   -0.11190E+04   -0.66683E-02 13272   0.598E-01    0.264E-02
RMM:   2    -0.111895861034E+04   -0.13578E-06   -0.34256E-05  7018   0.978E-03    0.414E-02
RMM:   3    -0.111895861062E+04   -0.28458E-06   -0.12002E-05  6762   0.629E-03    0.617E-03
RMM:   4    -0.111895861144E+04   -0.81949E-06   -0.66486E-06  4710   0.333E-03    0.589E-03
RMM:   5    -0.111895861193E+04   -0.48811E-06   -0.41521E-06  4424   0.362E-03    0.604E-03
RMM:   6    -0.111895861231E+04   -0.37665E-06   -0.30558E-06  3558   0.242E-03    0.167E-03
RMM:   7    -0.111895861242E+04   -0.11371E-06   -0.15529E-06  3022   0.256E-03    0.918E-04
RMM:   8    -0.111895861253E+04   -0.10338E-06   -0.10942E-06  2588   0.211E-03
   1 F= -.11189586E+04 E0= -.11189586E+04  d E =-.111896E+04  mag=    40.0000
       N       E                     dE             d eps       ncg     rms          rms(c)
DAV:   1    -0.111896022226E+04   -0.16098E-02   -0.16164E+00 12896   0.149E+00    0.676E-01
RMM:   2    -0.111896243775E+04   -0.22155E-02   -0.60104E-02 12317   0.320E-01    0.646E-01
RMM:   3    -0.111896152057E+04    0.91718E-03   -0.34604E-03 13148   0.996E-02    0.376E-01
RMM:   4    -0.111896100951E+04    0.51106E-03   -0.16477E-03 12829   0.458E-02    0.217E-01
RMM:   5    -0.111896093347E+04    0.76040E-04   -0.42154E-04 10338   0.289E-02    0.124E-01
RMM:   6    -0.111896094963E+04   -0.16165E-04   -0.85891E-05  7487   0.120E-02    0.522E-02
RMM:   7    -0.111896096017E+04   -0.10541E-04   -0.35953E-05  7228   0.938E-03    0.361E-02
RMM:   8    -0.111896096965E+04   -0.94769E-05   -0.24878E-05  7168   0.650E-03
   2 F= -.11189610E+04 E0= -.11189610E+04  d E =-.235712E-02  mag=    40.0000
       N       E                     dE             d eps       ncg     rms          rms(c)
DAV:   1    -0.111896168980E+04   -0.72962E-03   -0.16979E-01 13408   0.482E-01    0.219E-01
RMM:   2    -0.111896191024E+04   -0.22045E-03   -0.62900E-03 12290   0.104E-01    0.211E-01
RMM:   3    -0.111896180555E+04    0.10470E-03   -0.27762E-04  8876   0.312E-02    0.127E-01
RMM:   4    -0.111896174718E+04    0.58369E-04   -0.16107E-04  7339   0.172E-02    0.781E-02
RMM:   5    -0.111896173468E+04    0.12496E-04   -0.70873E-05  6906   0.125E-02    0.676E-02
RMM:   6    -0.111896173390E+04    0.78369E-06   -0.25225E-05  6188   0.755E-03    0.188E-02
RMM:   7    -0.111896173229E+04    0.16094E-05   -0.11676E-05  5297   0.446E-03    0.125E-02
RMM:   8    -0.111896173047E+04    0.18149E-05   -0.93215E-06  5142   0.390E-03
   3 F= -.11189617E+04 E0= -.11189617E+04  d E =-.311795E-02  mag=    40.0000
       N       E                     dE             d eps       ncg     rms          rms(c)
DAV:   1    -0.111896163314E+04    0.99146E-04   -0.13651E+00 12720   0.137E+00    0.346E-01
RMM:   2    -0.111896514611E+04   -0.35130E-02   -0.35308E-02 12335   0.244E-01    0.225E-01
RMM:   3    -0.111896521564E+04   -0.69522E-04   -0.18090E-03 12150   0.812E-02    0.137E-01
RMM:   4    -0.111896510894E+04    0.10670E-03   -0.52363E-04 11026   0.258E-02    0.675E-02
RMM:   5    -0.111896509243E+04    0.16513E-04   -0.11963E-04  7288   0.158E-02    0.400E-02
RMM:   6    -0.111896509625E+04   -0.38197E-05   -0.35328E-05  7116   0.971E-03    0.202E-02
RMM:   7    -0.111896509815E+04   -0.19059E-05   -0.18753E-05  6904   0.609E-03    0.126E-02
RMM:   8    -0.111896509917E+04   -0.10189E-05   -0.10937E-05  6477   0.541E-03
   4 F= -.11189651E+04 E0= -.11189651E+04  d E =-.336870E-02  mag=    40.0000
       N       E                     dE             d eps       ncg     rms          rms(c)
DAV:   1    -0.111896325618E+04    0.18420E-02   -0.11333E+00 12680   0.125E+00    0.315E-01
RMM:   2    -0.111896619968E+04   -0.29435E-02   -0.29576E-02 12347   0.223E-01    0.205E-01
RMM:   3    -0.111896626211E+04   -0.62433E-04   -0.15729E-03 12181   0.740E-02    0.126E-01
RMM:   4    -0.111896617540E+04    0.86714E-04   -0.45179E-04 10470   0.236E-02    0.630E-02
RMM:   5    -0.111896616111E+04    0.14288E-04   -0.11118E-04  7260   0.153E-02    0.410E-02
RMM:   6    -0.111896616476E+04   -0.36499E-05   -0.35911E-05  7114   0.978E-03    0.203E-02
RMM:   7    -0.111896616680E+04   -0.20396E-05   -0.19568E-05  6914   0.621E-03    0.126E-02
RMM:   8    -0.111896616797E+04   -0.11732E-05   -0.11922E-05  6659   0.561E-03
   5 F= -.11189662E+04 E0= -.11189662E+04  d E =-.443750E-02  mag=    40.0000
       N       E                     dE             d eps       ncg     rms          rms(c)
DAV:   1    -0.111896679197E+04   -0.62517E-03   -0.81023E-01 12896   0.106E+00    0.245E-01
RMM:   2    -0.111896867435E+04   -0.18824E-02   -0.20968E-02 12433   0.185E-01    0.170E-01
RMM:   3    -0.111896867271E+04    0.16328E-05   -0.10867E-03 11689   0.622E-02    0.109E-01
RMM:   4    -0.111896862470E+04    0.48014E-04   -0.28483E-04  8331   0.199E-02    0.676E-02
RMM:   5    -0.111896861470E+04    0.99982E-05   -0.82613E-05  7168   0.136E-02    0.416E-02
RMM:   6    -0.111896861781E+04   -0.31103E-05   -0.30717E-05  7065   0.879E-03    0.160E-02
RMM:   7    -0.111896861888E+04   -0.10651E-05   -0.17334E-05  6860   0.607E-03    0.130E-02
RMM:   8    -0.111896861924E+04   -0.36250E-06   -0.10805E-05  6643   0.518E-03
   6 F= -.11189686E+04 E0= -.11189686E+04  d E =-.245127E-02  mag=    40.0000
       N       E                     dE             d eps       ncg     rms          rms(c)
DAV:   1    -0.111896429022E+04    0.43287E-02   -0.27975E+00 12776   0.197E+00    0.454E-01
RMM:   2    -0.111897074869E+04   -0.64585E-02   -0.71962E-02 12400   0.342E-01    0.316E-01
RMM:   3    -0.111897074948E+04   -0.79683E-06   -0.37255E-03 12339   0.116E-01    0.202E-01
RMM:   4    -0.111897059633E+04    0.15316E-03   -0.11088E-03 13428   0.367E-02    0.121E-01
RMM:   5    -0.111897055739E+04    0.38933E-04   -0.26937E-04  9048   0.199E-02    0.689E-02
RMM:   6    -0.111897056363E+04   -0.62401E-05   -0.70460E-05  7223   0.122E-02    0.244E-02
RMM:   7    -0.111897056638E+04   -0.27437E-05   -0.39733E-05  7138   0.838E-03    0.190E-02
RMM:   8    -0.111897056709E+04   -0.71659E-06   -0.23243E-05  7021   0.723E-03
   7 F= -.11189706E+04 E0= -.11189706E+04  d E =-.439912E-02  mag=    40.0000
       N       E                     dE             d eps       ncg     rms          rms(c)
DAV:   1    -0.111896983576E+04    0.73062E-03   -0.14163E+00 12624   0.139E+00    0.292E-01
RMM:   2    -0.111897312233E+04   -0.32866E-02   -0.36010E-02 12425   0.240E-01    0.205E-01
RMM:   3    -0.111897311682E+04    0.55108E-05   -0.18475E-03 12154   0.820E-02    0.131E-01
RMM:   4    -0.111897304874E+04    0.68080E-04   -0.45945E-04 10486   0.244E-02    0.813E-02
RMM:   5    -0.111897302600E+04    0.22740E-04   -0.12690E-04  7282   0.159E-02    0.448E-02
RMM:   6    -0.111897303130E+04   -0.52968E-05   -0.43494E-05  7114   0.101E-02    0.172E-02
RMM:   7    -0.111897303334E+04   -0.20462E-05   -0.25056E-05  6981   0.690E-03    0.133E-02
RMM:   8    -0.111897303416E+04   -0.81463E-06   -0.15373E-05  6710   0.606E-03
   8 F= -.11189730E+04 E0= -.11189730E+04  d E =-.246707E-02  mag=    40.0000
       N       E                     dE             d eps       ncg     rms          rms(c)
DAV:   1    -0.111896769705E+04    0.53363E-02   -0.29655E+00 12616   0.201E+00    0.422E-01
RMM:   2    -0.111897454969E+04   -0.68526E-02   -0.75066E-02 12404   0.348E-01    0.297E-01
RMM:   3    -0.111897454956E+04    0.12925E-06   -0.38573E-03 12299   0.119E-01    0.189E-01
RMM:   4    -0.111897441243E+04    0.13712E-03   -0.99315E-04 13265   0.351E-02    0.116E-01
RMM:   5    -0.111897436737E+04    0.45068E-04   -0.29295E-04  9169   0.198E-02    0.556E-02
RMM:   6    -0.111897437468E+04   -0.73105E-05   -0.69657E-05  7207   0.115E-02    0.205E-02
RMM:   7    -0.111897437748E+04   -0.28063E-05   -0.36652E-05  7122   0.813E-03    0.148E-02
RMM:   8    -0.111897437839E+04   -0.90235E-06   -0.23488E-05  6902   0.721E-03
   9 F= -.11189744E+04 E0= -.11189744E+04  d E =-.381129E-02  mag=    40.0000
       N       E                     dE             d eps       ncg     rms          rms(c)
DAV:   1    -0.111897253558E+04    0.18419E-02   -0.18429E+00 12560   0.157E+00    0.318E-01
RMM:   2    -0.111897680692E+04   -0.42713E-02   -0.46225E-02 12460   0.272E-01    0.219E-01
RMM:   3    -0.111897678746E+04    0.19459E-04   -0.23066E-03 12166   0.907E-02    0.143E-01
RMM:   4    -0.111897670218E+04    0.85283E-04   -0.55057E-04 11255   0.271E-02    0.876E-02
RMM:   5    -0.111897667818E+04    0.23996E-04   -0.17792E-04  7597   0.182E-02    0.713E-02
RMM:   6    -0.111897668565E+04   -0.74616E-05   -0.56897E-05  7141   0.121E-02    0.244E-02
RMM:   7    -0.111897669007E+04   -0.44286E-05   -0.30972E-05  7068   0.764E-03    0.161E-02
RMM:   8    -0.111897669245E+04   -0.23748E-05   -0.18638E-05  6892   0.708E-03
  10 F= -.11189767E+04 E0= -.11189767E+04  d E =-.231406E-02  mag=    40.0000
       N       E                     dE             d eps       ncg     rms          rms(c)
DAV:   1    -0.111897086192E+04    0.58282E-02   -0.30940E+00 12568   0.203E+00    0.412E-01
RMM:   2    -0.111897802156E+04   -0.71596E-02   -0.77529E-02 12492   0.353E-01    0.285E-01
RMM:   3    -0.111897799557E+04    0.25992E-04   -0.38643E-03 12387   0.117E-01    0.185E-01
RMM:   4    -0.111897785736E+04    0.13821E-03   -0.94693E-04 13287   0.351E-02    0.111E-01
RMM:   5    -0.111897781746E+04    0.39895E-04   -0.32937E-04  9501   0.211E-02    0.784E-02
RMM:   6    -0.111897782641E+04   -0.89481E-05   -0.75085E-05  7221   0.125E-02    0.264E-02
RMM:   7    -0.111897783152E+04   -0.51120E-05   -0.37985E-05  7129   0.810E-03    0.151E-02
RMM:   8    -0.111897783471E+04   -0.31893E-05   -0.23156E-05  7012   0.755E-03
  11 F= -.11189778E+04 E0= -.11189778E+04  d E =-.345633E-02  mag=    40.0000
       N       E                     dE             d eps       ncg     rms          rms(c)
DAV:   1    -0.111897495123E+04    0.28803E-02   -0.23605E+00 12544   0.176E+00    0.353E-01
RMM:   2    -0.111898045734E+04   -0.55061E-02   -0.58903E-02 12376   0.303E-01    0.267E-01
RMM:   3    -0.111898045679E+04    0.54286E-06   -0.29705E-03 12114   0.103E-01    0.170E-01
RMM:   4    -0.111898033872E+04    0.11807E-03   -0.78082E-04 12453   0.305E-02    0.104E-01
RMM:   5    -0.111898030225E+04    0.36472E-04   -0.24119E-04  8812   0.191E-02    0.503E-02
RMM:   6    -0.111898030881E+04   -0.65576E-05   -0.55857E-05  7178   0.111E-02    0.210E-02
RMM:   7    -0.111898031207E+04   -0.32614E-05   -0.31963E-05  7077   0.733E-03    0.146E-02
RMM:   8    -0.111898031385E+04   -0.17794E-05   -0.19354E-05  6847   0.692E-03
  12 F= -.11189803E+04 E0= -.11189803E+04  d E =-.247914E-02  mag=    40.0000
       N       E                     dE             d eps       ncg     rms          rms(c)
DAV:   1    -0.111897788852E+04    0.24236E-02   -0.13294E+00 12640   0.132E+00    0.264E-01
RMM:   2    -0.111898100185E+04   -0.31133E-02   -0.33296E-02 12402   0.229E-01    0.201E-01
RMM:   3    -0.111898100245E+04   -0.60115E-06   -0.16983E-03 11873   0.777E-02    0.128E-01
RMM:   4    -0.111898093512E+04    0.67328E-04   -0.44023E-04 10573   0.232E-02    0.789E-02
RMM:   5    -0.111898091367E+04    0.21449E-04   -0.12899E-04  7490   0.155E-02    0.429E-02
RMM:   6    -0.111898091871E+04   -0.50323E-05   -0.38881E-05  7104   0.972E-03    0.186E-02
RMM:   7    -0.111898092109E+04   -0.23857E-05   -0.22439E-05  6897   0.626E-03    0.131E-02
RMM:   8    -0.111898092238E+04   -0.12937E-05   -0.13493E-05  6621   0.582E-03
  13 F= -.11189809E+04 E0= -.11189809E+04  d E =-.308767E-02  mag=    40.0000
       N       E                     dE             d eps       ncg     rms          rms(c)
DAV:   1    -0.111897701370E+04    0.39074E-02   -0.29446E+00 12672   0.197E+00    0.427E-01
RMM:   2    -0.111898372259E+04   -0.67089E-02   -0.72560E-02 12485   0.337E-01    0.276E-01
RMM:   3    -0.111898370127E+04    0.21317E-04   -0.36606E-03 12322   0.114E-01    0.170E-01
RMM:   4    -0.111898357131E+04    0.12996E-03   -0.96241E-04 13058   0.347E-02    0.112E-01
RMM:   5    -0.111898353048E+04    0.40830E-04   -0.22402E-04  8360   0.191E-02    0.682E-02
RMM:   6    -0.111898353789E+04   -0.74144E-05   -0.76741E-05  7207   0.117E-02    0.201E-02
RMM:   7    -0.111898353987E+04   -0.19739E-05   -0.35578E-05  7107   0.855E-03    0.152E-02
RMM:   8    -0.111898354019E+04   -0.31907E-06   -0.25391E-05  6886   0.699E-03
  14 F= -.11189835E+04 E0= -.11189835E+04  d E =-.261780E-02  mag=    40.0000
       N       E                     dE             d eps       ncg     rms          rms(c)
DAV:   1    -0.111897523385E+04    0.83060E-02   -0.42408E+00 12448   0.237E+00    0.510E-01
RMM:   2    -0.111898493666E+04   -0.97028E-02   -0.10470E-01 12504   0.404E-01    0.330E-01
RMM:   3    -0.111898490256E+04    0.34097E-04   -0.52258E-03 12572   0.136E-01    0.203E-01
RMM:   4    -0.111898471915E+04    0.18341E-03   -0.13816E-03 14111   0.412E-02    0.134E-01
RMM:   5    -0.111898466089E+04    0.58256E-04   -0.31905E-04 10060   0.202E-02    0.788E-02
RMM:   6    -0.111898467105E+04   -0.10158E-04   -0.99643E-05  7371   0.122E-02    0.233E-02
RMM:   7    -0.111898467307E+04   -0.20178E-05   -0.38905E-05  7177   0.847E-03    0.158E-02
RMM:   8    -0.111898467364E+04   -0.57636E-06   -0.33321E-05  7033   0.745E-03
  15 F= -.11189847E+04 E0= -.11189847E+04  d E =-.375126E-02  mag=    40.0000
       N       E                     dE             d eps       ncg     rms          rms(c)
DAV:   1    -0.111898250059E+04    0.21725E-02   -0.17464E+00 12704   0.152E+00    0.294E-01
RMM:   2    -0.111898661084E+04   -0.41102E-02   -0.43180E-02 12552   0.258E-01    0.201E-01
RMM:   3    -0.111898658765E+04    0.23188E-04   -0.21061E-03 12153   0.847E-02    0.126E-01
RMM:   4    -0.111898650947E+04    0.78177E-04   -0.49669E-04 11118   0.257E-02    0.819E-02
RMM:   5    -0.111898649116E+04    0.18307E-04   -0.14237E-04  7454   0.162E-02    0.556E-02
RMM:   6    -0.111898649860E+04   -0.74339E-05   -0.49939E-05  7128   0.104E-02    0.184E-02
RMM:   7    -0.111898650245E+04   -0.38555E-05   -0.27718E-05  7053   0.734E-03    0.149E-02
RMM:   8    -0.111898650470E+04   -0.22449E-05   -0.17621E-05  6831   0.632E-03
  16 F= -.11189865E+04 E0= -.11189865E+04  d E =-.183106E-02  mag=    40.0000
       N       E                     dE             d eps       ncg     rms          rms(c)
DAV:   1    -0.111897374685E+04    0.12756E-01   -0.62075E+00 12464   0.286E+00    0.555E-01
RMM:   2    -0.111898821828E+04   -0.14471E-01   -0.15221E-01 12480   0.487E-01    0.378E-01
RMM:   3    -0.111898821052E+04    0.77571E-05   -0.76175E-03 12510   0.165E-01    0.237E-01
RMM:   4    -0.111898795518E+04    0.25535E-03   -0.19282E-03 14681   0.486E-02    0.150E-01
RMM:   5    -0.111898788738E+04    0.67798E-04   -0.54596E-04 12012   0.236E-02    0.928E-02
RMM:   6    -0.111898790386E+04   -0.16483E-04   -0.11733E-04  7501   0.129E-02    0.262E-02
RMM:   7    -0.111898791018E+04   -0.63178E-05   -0.50496E-05  7228   0.866E-03    0.164E-02
RMM:   8    -0.111898791484E+04   -0.46635E-05   -0.40349E-05  7065   0.800E-03
  17 F= -.11189879E+04 E0= -.11189879E+04  d E =-.324120E-02  mag=    40.0000
       N       E                     dE             d eps       ncg     rms          rms(c)
DAV:   1    -0.111898576340E+04    0.21468E-02   -0.19624E+00 12408   0.160E+00    0.320E-01
RMM:   2    -0.111899018133E+04   -0.44179E-02   -0.48838E-02 12545   0.275E-01    0.219E-01
RMM:   3    -0.111899011073E+04    0.70592E-04   -0.23909E-03 12331   0.905E-02    0.140E-01
RMM:   4    -0.111899000750E+04    0.10323E-03   -0.61811E-04 12203   0.284E-02    0.859E-02
RMM:   5    -0.111898998304E+04    0.24459E-04   -0.16436E-04  7893   0.173E-02    0.664E-02
RMM:   6    -0.111898999022E+04   -0.71780E-05   -0.56003E-05  7178   0.108E-02    0.229E-02
RMM:   7    -0.111898999456E+04   -0.43374E-05   -0.28667E-05  7094   0.754E-03    0.170E-02
RMM:   8    -0.111898999713E+04   -0.25774E-05   -0.19255E-05  6884   0.651E-03
  18 F= -.11189900E+04 E0= -.11189900E+04  d E =-.208229E-02  mag=    40.0000
       N       E                     dE             d eps       ncg     rms          rms(c)
DAV:   1    -0.111898718637E+04    0.28082E-02   -0.15989E+00 12496   0.145E+00    0.289E-01
RMM:   2    -0.111899079833E+04   -0.36120E-02   -0.39919E-02 12628   0.249E-01    0.199E-01
RMM:   3    -0.111899073934E+04    0.58992E-04   -0.19452E-03 12174   0.805E-02    0.127E-01
RMM:   4    -0.111899065395E+04    0.85391E-04   -0.48421E-04 10823   0.254E-02    0.742E-02
RMM:   5    -0.111899063459E+04    0.19356E-04   -0.14340E-04  7480   0.167E-02    0.548E-02
RMM:   6    -0.111899063988E+04   -0.52897E-05   -0.45760E-05  7152   0.106E-02    0.241E-02
RMM:   7    -0.111899064372E+04   -0.38365E-05   -0.25100E-05  6983   0.678E-03    0.150E-02
RMM:   8    -0.111899064606E+04   -0.23461E-05   -0.15486E-05  6767   0.622E-03
  19 F= -.11189906E+04 E0= -.11189906E+04  d E =-.273122E-02  mag=    40.0000
       N       E                     dE             d eps       ncg     rms          rms(c)
DAV:   1    -0.111898943276E+04    0.12110E-02   -0.12361E+00 12496   0.128E+00    0.276E-01
RMM:   2    -0.111899238596E+04   -0.29532E-02   -0.30639E-02 12456   0.221E-01    0.187E-01
RMM:   3    -0.111899240214E+04   -0.16174E-04   -0.15630E-03 11943   0.746E-02    0.114E-01
RMM:   4    -0.111899232935E+04    0.72789E-04   -0.42476E-04 10195   0.231E-02    0.673E-02
RMM:   5    -0.111899231506E+04    0.14291E-04   -0.10141E-04  7233   0.145E-02    0.462E-02
RMM:   6    -0.111899231865E+04   -0.35901E-05   -0.36219E-05  7101   0.909E-03    0.179E-02
RMM:   7    -0.111899232025E+04   -0.16014E-05   -0.19797E-05  6836   0.621E-03    0.140E-02
RMM:   8    -0.111899232092E+04   -0.66950E-06   -0.12411E-05  6551   0.522E-03
  20 F= -.11189923E+04 E0= -.11189923E+04  d E =-.167486E-02  mag=    40.0000
       N       E                     dE             d eps       ncg     rms          rms(c)
DAV:   1    -0.111898980413E+04    0.25161E-02   -0.13544E+00 12392   0.134E+00    0.288E-01
RMM:   2    -0.111899305130E+04   -0.32472E-02   -0.33683E-02 12528   0.232E-01    0.196E-01
RMM:   3    -0.111899306327E+04   -0.11975E-04   -0.16892E-03 12081   0.763E-02    0.120E-01
RMM:   4    -0.111899298237E+04    0.80908E-04   -0.44944E-04 10483   0.240E-02    0.684E-02
RMM:   5    -0.111899296629E+04    0.16070E-04   -0.11407E-04  7266   0.153E-02    0.476E-02
RMM:   6    -0.111899296982E+04   -0.35290E-05   -0.38643E-05  7104   0.966E-03    0.204E-02
RMM:   7    -0.111899297154E+04   -0.17122E-05   -0.21050E-05  6892   0.635E-03    0.146E-02
RMM:   8    -0.111899297218E+04   -0.63922E-06   -0.12998E-05  6635   0.556E-03
  21 F= -.11189930E+04 E0= -.11189930E+04  d E =-.232611E-02  mag=    40.0000
       N       E                     dE             d eps       ncg     rms          rms(c)
DAV:   1    -0.111899090637E+04    0.20652E-02   -0.15126E+00 12536   0.142E+00    0.300E-01
RMM:   2    -0.111899454305E+04   -0.36367E-02   -0.37820E-02 12440   0.248E-01    0.203E-01
RMM:   3    -0.111899456770E+04   -0.24652E-04   -0.19304E-03 12091   0.828E-02    0.126E-01
RMM:   4    -0.111899448645E+04    0.81251E-04   -0.49901E-04 10793   0.251E-02    0.710E-02
RMM:   5    -0.111899447026E+04    0.16187E-04   -0.13060E-04  7331   0.160E-02    0.437E-02
RMM:   6    -0.111899447538E+04   -0.51206E-05   -0.43656E-05  7105   0.103E-02    0.180E-02
RMM:   7    -0.111899447790E+04   -0.25203E-05   -0.25208E-05  6872   0.670E-03    0.121E-02
RMM:   8    -0.111899447917E+04   -0.12703E-05   -0.15348E-05  6615   0.607E-03
  22 F= -.11189945E+04 E0= -.11189945E+04  d E =-.150700E-02  mag=    40.0000
       N       E                     dE             d eps       ncg     rms          rms(c)
DAV:   1    -0.111899277517E+04    0.17027E-02   -0.87266E-01 12672   0.108E+00    0.228E-01
RMM:   2    -0.111899489352E+04   -0.21184E-02   -0.22014E-02 12540   0.189E-01    0.155E-01
RMM:   3    -0.111899490051E+04   -0.69861E-05   -0.11023E-03 11622   0.613E-02    0.963E-02
RMM:   4    -0.111899485072E+04    0.49793E-04   -0.25833E-04  8172   0.191E-02    0.548E-02
RMM:   5    -0.111899484344E+04    0.72739E-05   -0.87499E-05  7177   0.131E-02    0.361E-02
RMM:   6    -0.111899484657E+04   -0.31330E-05   -0.30136E-05  7001   0.874E-03    0.156E-02
RMM:   7    -0.111899484825E+04   -0.16791E-05   -0.17254E-05  6607   0.556E-03    0.996E-03
RMM:   8    -0.111899484913E+04   -0.87653E-06   -0.10233E-05  6242   0.517E-03
  23 F= -.11189948E+04 E0= -.11189948E+04  d E =-.187696E-02  mag=    40.0000
       N       E                     dE             d eps       ncg     rms          rms(c)
DAV:   1    -0.111899193012E+04    0.29181E-02   -0.18484E+00 12672   0.158E+00    0.343E-01
RMM:   2    -0.111899635254E+04   -0.44224E-02   -0.45691E-02 12526   0.270E-01    0.222E-01
RMM:   3    -0.111899637467E+04   -0.22135E-04   -0.22920E-03 12316   0.898E-02    0.134E-01
RMM:   4    -0.111899626345E+04    0.11122E-03   -0.61519E-04 11736   0.278E-02    0.702E-02
RMM:   5    -0.111899624673E+04    0.16723E-04   -0.14162E-04  7353   0.169E-02    0.427E-02
RMM:   6    -0.111899625209E+04   -0.53611E-05   -0.49190E-05  7147   0.107E-02    0.235E-02
RMM:   7    -0.111899625484E+04   -0.27506E-05   -0.27597E-05  6983   0.732E-03    0.159E-02
RMM:   8    -0.111899625625E+04   -0.14079E-05   -0.17190E-05  6685   0.629E-03
  24 F= -.11189963E+04 E0= -.11189963E+04  d E =-.140712E-02  mag=    40.0000
       N       E                     dE             d eps       ncg     rms          rms(c)
DAV:   1    -0.111899582825E+04    0.42659E-03   -0.22473E-01 12896   0.550E-01    0.119E-01
RMM:   2    -0.111899638524E+04   -0.55699E-03   -0.57545E-03 12766   0.960E-02    0.783E-02
RMM:   3    -0.111899637775E+04    0.74945E-05   -0.24129E-04  7983   0.294E-02    0.479E-02
RMM:   4    -0.111899636436E+04    0.13389E-04   -0.71051E-05  7096   0.113E-02    0.247E-02
RMM:   5    -0.111899636446E+04   -0.10128E-06   -0.28670E-05  6917   0.770E-03    0.163E-02
RMM:   6    -0.111899636568E+04   -0.12191E-05   -0.12287E-05  6592   0.502E-03    0.880E-03
RMM:   7    -0.111899636630E+04   -0.61881E-06   -0.65816E-06  5828   0.393E-03    0.519E-03
RMM:   8    -0.111899636664E+04   -0.34337E-06   -0.39483E-06  4618   0.299E-03
  25 F= -.11189964E+04 E0= -.11189964E+04  d E =-.151751E-02  mag=    40.0000
       N       E                     dE             d eps       ncg     rms          rms(c)
DAV:   1    -0.111899348315E+04    0.28831E-02   -0.16929E+00 12640   0.150E+00    0.324E-01
RMM:   2    -0.111899748250E+04   -0.39994E-02   -0.41652E-02 12399   0.259E-01    0.224E-01
RMM:   3    -0.111899750708E+04   -0.24579E-04   -0.21477E-03 12074   0.878E-02    0.136E-01
RMM:   4    -0.111899741816E+04    0.88920E-04   -0.55166E-04 11169   0.263E-02    0.816E-02
RMM:   5    -0.111899739329E+04    0.24876E-04   -0.14897E-04  7383   0.169E-02    0.511E-02
RMM:   6    -0.111899740028E+04   -0.69937E-05   -0.47290E-05  7134   0.108E-02    0.190E-02
RMM:   7    -0.111899740331E+04   -0.30294E-05   -0.25118E-05  7015   0.695E-03    0.141E-02
RMM:   8    -0.111899740507E+04   -0.17593E-05   -0.15214E-05  6786   0.608E-03
  26 F= -.11189974E+04 E0= -.11189974E+04  d E =-.103843E-02  mag=    40.0000
       N       E                     dE             d eps       ncg     rms          rms(c)
DAV:   1    -0.111899730356E+04    0.99745E-04   -0.52357E-02 12992   0.264E-01    0.572E-02
RMM:   2    -0.111899743668E+04   -0.13311E-03   -0.13750E-03 12214   0.475E-02    0.404E-02
RMM:   3    -0.111899743528E+04    0.14012E-05   -0.59321E-05  7001   0.151E-02    0.247E-02
RMM:   4    -0.111899743411E+04    0.11693E-05   -0.21199E-05  6799   0.616E-03    0.149E-02
RMM:   5    -0.111899743424E+04   -0.13395E-06   -0.95113E-06  6147   0.446E-03    0.101E-02
RMM:   6    -0.111899743476E+04   -0.51620E-06   -0.42057E-06  4737   0.306E-03    0.463E-03
RMM:   7    -0.111899743504E+04   -0.27950E-06   -0.22621E-06  3950   0.271E-03    0.195E-03
RMM:   8    -0.111899743518E+04   -0.14059E-06   -0.10523E-06  2850   0.219E-03
  27 F= -.11189974E+04 E0= -.11189974E+04  d E =-.106854E-02  mag=    40.0000
       N       E                     dE             d eps       ncg     rms          rms(c)
DAV:   1    -0.111899535730E+04    0.20777E-02   -0.13567E+00 12544   0.134E+00    0.269E-01
RMM:   2    -0.111899842614E+04   -0.30688E-02   -0.33249E-02 12381   0.230E-01    0.189E-01
RMM:   3    -0.111899842415E+04    0.19917E-05   -0.17229E-03 11879   0.797E-02    0.118E-01
RMM:   4    -0.111899835343E+04    0.70719E-04   -0.47156E-04 10455   0.240E-02    0.736E-02
RMM:   5    -0.111899833380E+04    0.19629E-04   -0.10847E-04  7239   0.147E-02    0.388E-02
RMM:   6    -0.111899833830E+04   -0.45022E-05   -0.36343E-05  7084   0.913E-03    0.167E-02
RMM:   7    -0.111899834002E+04   -0.17197E-05   -0.19626E-05  6823   0.604E-03    0.119E-02
RMM:   8    -0.111899834077E+04   -0.75104E-06   -0.11690E-05  6476   0.514E-03
  28 F= -.11189983E+04 E0= -.11189983E+04  d E =-.905596E-03  mag=    40.0000
