<?xml version="1.0" encoding="ISO-8859-1"?>
<modeling>
 <generator>
  <i name="program" type="string">vasp </i>
  <i name="version" type="string">5.4.1  </i>
  <i name="subversion" type="string">05Feb16 (build Jan 25 2017 20:16:33) complex                          parallel </i>
  <i name="platform" type="string">BWXE6 </i>
  <i name="date" type="string">2019 07 09 </i>
  <i name="time" type="string">13:56:04 </i>
 </generator>
 <incar>
  <i type="string" name="SYSTEM"> STF</i>
  <i type="string" name="PREC">normal</i>
  <i type="string" name="ALGO"> Fast</i>
  <i type="int" name="ISPIN">     2</i>
  <i type="int" name="NELM">    40</i>
  <i type="int" name="NELMIN">     8</i>
  <i type="int" name="IBRION">     2</i>
  <i name="EDIFF">      0.00010000</i>
  <i name="EDIFFG">     -0.03000000</i>
  <i type="int" name="NSW">    30</i>
  <i type="int" name="ISIF">     3</i>
  <i name="ENCUT">    520.00000000</i>
  <i type="int" name="NBANDS">   768</i>
  <v name="MAGMOM">      0.60000000      0.60000000      0.60000000      0.60000000      0.60000000      0.60000000      0.60000000      0.60000000      0.60000000      0.60000000      0.60000000      0.60000000      0.60000000      0.60000000      0.60000000      0.60000000      0.60000000      0.60000000      0.60000000      0.60000000
      0.60000000      0.60000000      0.60000000      0.60000000      0.60000000      0.60000000      0.60000000      0.60000000      0.60000000      0.60000000      0.60000000      0.60000000      0.60000000      0.60000000      0.60000000      0.60000000      0.60000000      0.60000000      0.60000000      0.60000000
      0.60000000      0.60000000      0.60000000      0.60000000      0.60000000      0.60000000      0.60000000      0.60000000      0.60000000      0.60000000      0.60000000      0.60000000      0.60000000      0.60000000      0.60000000      0.60000000      5.00000000      5.00000000      5.00000000      5.00000000
      5.00000000      5.00000000      5.00000000      5.00000000      0.60000000      0.60000000      0.60000000      0.60000000      0.60000000      0.60000000      0.60000000      0.60000000      0.60000000      0.60000000      0.60000000      0.60000000      0.60000000      0.60000000      0.60000000      0.60000000
      0.60000000      0.60000000      0.60000000      0.60000000      0.60000000      0.60000000      0.60000000      0.60000000      0.60000000      0.60000000      0.60000000      0.60000000      0.60000000      0.60000000      0.60000000      0.60000000      0.60000000      0.60000000      0.60000000      0.60000000
      0.60000000      0.60000000      0.60000000      0.60000000      0.60000000      0.60000000      0.60000000      0.60000000      0.60000000      0.60000000      0.60000000      0.60000000      0.60000000      0.60000000      0.60000000      0.60000000      0.60000000      0.60000000      0.60000000      0.60000000
      0.60000000      0.60000000      0.60000000      0.60000000      0.60000000      0.60000000      0.60000000      0.60000000      0.60000000      0.60000000      0.60000000      0.60000000      0.60000000      0.60000000      0.60000000      0.60000000      0.60000000      0.60000000      0.60000000      0.60000000
      0.60000000      0.60000000      0.60000000      0.60000000      0.60000000      0.60000000      0.60000000      0.60000000      0.60000000      0.60000000      0.60000000      0.60000000      0.60000000      0.60000000      0.60000000      0.60000000</v>
  <i type="string" name="LREAL"> Auto</i>
  <i type="int" name="ISMEAR">     0</i>
  <i name="SIGMA">      0.05000000</i>
  <i type="int" name="LMAXMIX">     4</i>
  <v type="int" name="KPOINT_BSE">    -1     0     0     0</v>
  <i type="int" name="NELM">    40</i>
  <i type="logical" name="LDAU"> T  </i>
  <v type="int" name="LDAUTYPE">     2</v>
  <v type="int" name="LDAUL">     0     2     2     0</v>
  <v name="LDAUU">      0.00000000      3.00000000      5.00000000      0.00000000</v>
  <v name="LDAUJ">      0.00000000      0.00000000      0.00000000      0.00000000</v>
  <i type="int" name="LDAUPRINT">     1</i>
 </incar>
 <kpoints>
  <generation param="Monkhorst-Pack">
   <v type="int" name="divisions">       2        2        2 </v>
   <v name="usershift">      0.00000000       0.00000000       0.00000000 </v>
   <v name="genvec1">      0.50000000       0.00000000       0.00000000 </v>
   <v name="genvec2">     -0.00000000       0.50000000       0.00000000 </v>
   <v name="genvec3">      0.00000000       0.00000000       0.50000000 </v>
   <v name="shift">      0.50000000       0.50000000       0.50000000 </v>
  </generation>
  <varray name="kpointlist" >
   <v>       0.25000000       0.25000000       0.25000000 </v>
   <v>      -0.25000000       0.25000000       0.25000000 </v>
   <v>       0.25000000      -0.25000000       0.25000000 </v>
   <v>      -0.25000000      -0.25000000       0.25000000 </v>
  </varray>
  <varray name="weights" >
   <v>       0.25000000 </v>
   <v>       0.25000000 </v>
   <v>       0.25000000 </v>
   <v>       0.25000000 </v>
  </varray>
 </kpoints>
 <parameters>
  <separator name="general" >
   <i type="string" name="SYSTEM">STF</i>
   <i type="logical" name="LCOMPAT"> F  </i>
  </separator>
  <separator name="electronic" >
   <i type="string" name="PREC">normal</i>
   <i name="ENMAX">    520.00000000</i>
   <i name="ENAUG">    605.39200000</i>
   <i name="EDIFF">      0.00010000</i>
   <i type="int" name="IALGO">    68</i>
   <i type="int" name="IWAVPR">    11</i>
   <i type="int" name="NBANDS">   768</i>
   <i name="NELECT">   1032.00000000</i>
   <i type="int" name="TURBO">     0</i>
   <i type="int" name="IRESTART">     0</i>
   <i type="int" name="NREBOOT">     0</i>
   <i type="int" name="NMIN">     0</i>
   <i name="EREF">      0.00000000</i>
   <separator name="electronic smearing" >
    <i type="int" name="ISMEAR">     0</i>
    <i name="SIGMA">      0.05000000</i>
    <i name="KSPACING">      0.50000000</i>
    <i type="logical" name="KGAMMA"> T  </i>
   </separator>
   <separator name="electronic projectors" >
    <i type="logical" name="LREAL"> T  </i>
    <v name="ROPT">     -0.00050000     -0.00050000     -0.00050000     -0.00050000</v>
    <i type="int" name="LMAXPAW">  -100</i>
    <i type="int" name="LMAXMIX">     4</i>
    <i type="logical" name="NLSPLINE"> F  </i>
   </separator>
   <separator name="electronic startup" >
    <i type="int" name="ISTART">     1</i>
    <i type="int" name="ICHARG">     0</i>
    <i type="int" name="INIWAV">     1</i>
   </separator>
   <separator name="electronic spin" >
    <i type="int" name="ISPIN">     2</i>
    <i type="logical" name="LNONCOLLINEAR"> F  </i>
    <v name="MAGMOM">      0.60000000      0.60000000      0.60000000      0.60000000      0.60000000      0.60000000      0.60000000      0.60000000      0.60000000      0.60000000      0.60000000      0.60000000      0.60000000      0.60000000      0.60000000      0.60000000      0.60000000      0.60000000      0.60000000      0.60000000
      0.60000000      0.60000000      0.60000000      0.60000000      0.60000000      0.60000000      0.60000000      0.60000000      0.60000000      0.60000000      0.60000000      0.60000000      0.60000000      0.60000000      0.60000000      0.60000000      0.60000000      0.60000000      0.60000000      0.60000000
      0.60000000      0.60000000      0.60000000      0.60000000      0.60000000      0.60000000      0.60000000      0.60000000      0.60000000      0.60000000      0.60000000      0.60000000      0.60000000      0.60000000      0.60000000      0.60000000      5.00000000      5.00000000      5.00000000      5.00000000
      5.00000000      5.00000000      5.00000000      5.00000000      0.60000000      0.60000000      0.60000000      0.60000000      0.60000000      0.60000000      0.60000000      0.60000000      0.60000000      0.60000000      0.60000000      0.60000000      0.60000000      0.60000000      0.60000000      0.60000000
      0.60000000      0.60000000      0.60000000      0.60000000      0.60000000      0.60000000      0.60000000      0.60000000      0.60000000      0.60000000      0.60000000      0.60000000      0.60000000      0.60000000      0.60000000      0.60000000      0.60000000      0.60000000      0.60000000      0.60000000
      0.60000000      0.60000000      0.60000000      0.60000000      0.60000000      0.60000000      0.60000000      0.60000000      0.60000000      0.60000000      0.60000000      0.60000000      0.60000000      0.60000000      0.60000000      0.60000000      0.60000000      0.60000000      0.60000000      0.60000000
      0.60000000      0.60000000      0.60000000      0.60000000      0.60000000      0.60000000      0.60000000      0.60000000      0.60000000      0.60000000      0.60000000      0.60000000      0.60000000      0.60000000      0.60000000      0.60000000      0.60000000      0.60000000      0.60000000      0.60000000
      0.60000000      0.60000000      0.60000000      0.60000000      0.60000000      0.60000000      0.60000000      0.60000000      0.60000000      0.60000000      0.60000000      0.60000000      0.60000000      0.60000000      0.60000000      0.60000000</v>
    <i name="NUPDOWN">     -1.00000000</i>
    <i type="logical" name="LSORBIT"> F  </i>
    <v name="SAXIS">      0.00000000      0.00000000      1.00000000</v>
    <i type="logical" name="LSPIRAL"> F  </i>
    <v name="QSPIRAL">      0.00000000      0.00000000      0.00000000</v>
    <i type="logical" name="LZEROZ"> F  </i>
   </separator>
   <separator name="electronic exchange-correlation" >
    <i type="logical" name="LASPH"> F  </i>
    <i type="logical" name="LMETAGGA"> F  </i>
   </separator>
   <separator name="electronic convergence" >
    <i type="int" name="NELM">    40</i>
    <i type="int" name="NELMDL">     0</i>
    <i type="int" name="NELMIN">     8</i>
    <i name="ENINI">    520.00000000</i>
    <separator name="electronic convergence detail" >
     <i type="logical" name="LDIAG"> T  </i>
     <i type="logical" name="LSUBROT"> F  </i>
     <i name="WEIMIN">      0.00100000</i>
     <i name="EBREAK">      0.00000003</i>
     <i name="DEPER">      0.30000000</i>
     <i type="int" name="NRMM">     4</i>
     <i name="TIME">      0.40000000</i>
    </separator>
   </separator>
   <separator name="electronic mixer" >
    <i name="AMIX">      0.40000000</i>
    <i name="BMIX">      1.00000000</i>
    <i name="AMIN">      0.10000000</i>
    <i name="AMIX_MAG">      1.60000000</i>
    <i name="BMIX_MAG">      1.00000000</i>
    <separator name="electronic mixer details" >
     <i type="int" name="IMIX">     4</i>
     <i type="logical" name="MIXFIRST"> F  </i>
     <i type="int" name="MAXMIX">   -45</i>
     <i name="WC">    100.00000000</i>
     <i type="int" name="INIMIX">     1</i>
     <i type="int" name="MIXPRE">     1</i>
     <i type="int" name="MREMOVE">     5</i>
    </separator>
   </separator>
   <separator name="electronic dipolcorrection" >
    <i type="logical" name="LDIPOL"> F  </i>
    <i type="logical" name="LMONO"> F  </i>
    <i type="int" name="IDIPOL">     0</i>
    <i name="EPSILON">      1.00000000</i>
    <v name="DIPOL">   -100.00000000   -100.00000000   -100.00000000</v>
    <i name="EFIELD">      0.00000000</i>
   </separator>
  </separator>
  <separator name="grids" >
   <i type="int" name="NGX">    64</i>
   <i type="int" name="NGY">    64</i>
   <i type="int" name="NGZ">    90</i>
   <i type="int" name="NGXF">   128</i>
   <i type="int" name="NGYF">   128</i>
   <i type="int" name="NGZF">   180</i>
   <i type="logical" name="ADDGRID"> F  </i>
  </separator>
  <separator name="ionic" >
   <i type="int" name="NSW">    30</i>
   <i type="int" name="IBRION">     2</i>
   <i type="int" name="ISIF">     3</i>
   <i name="PSTRESS">      0.00000000</i>
   <i name="EDIFFG">     -0.03000000</i>
   <i type="int" name="NFREE">     1</i>
   <i name="POTIM">      0.50000000</i>
   <i name="SMASS">     -3.00000000</i>
   <i name="SCALEE">      1.00000000</i>
  </separator>
  <separator name="ionic md" >
   <i name="TEBEG">      0.00010000</i>
   <i name="TEEND">      0.00010000</i>
   <i type="int" name="NBLOCK">     1</i>
   <i type="int" name="KBLOCK">    30</i>
   <i type="int" name="NPACO">   256</i>
   <i name="APACO">     16.00000000</i>
  </separator>
  <separator name="symmetry" >
   <i type="int" name="ISYM">     2</i>
   <i name="SYMPREC">      0.00001000</i>
  </separator>
  <separator name="dos" >
   <i type="logical" name="LORBIT"> F  </i>
   <v name="RWIGS">     -1.00000000     -1.00000000     -1.00000000     -1.00000000</v>
   <i type="int" name="NEDOS">   301</i>
   <i name="EMIN">     10.00000000</i>
   <i name="EMAX">    -10.00000000</i>
   <i name="EFERMI">      0.00000000</i>
  </separator>
  <separator name="writing" >
   <i type="int" name="NWRITE">     2</i>
   <i type="logical" name="LWAVE"> T  </i>
   <i type="logical" name="LCHARG"> T  </i>
   <i type="logical" name="LPARD"> F  </i>
   <i type="logical" name="LVTOT"> F  </i>
   <i type="logical" name="LVHAR"> F  </i>
   <i type="logical" name="LELF"> F  </i>
   <i type="logical" name="LOPTICS"> F  </i>
   <v name="STM">      0.00000000      0.00000000      0.00000000      0.00000000      0.00000000      0.00000000      0.00000000</v>
  </separator>
  <separator name="performance" >
   <i type="int" name="NPAR">     2</i>
   <i type="int" name="NSIM">     4</i>
   <i type="int" name="NBLK">    -1</i>
   <i type="logical" name="LPLANE"> T  </i>
   <i type="logical" name="LSCALAPACK"> T  </i>
   <i type="logical" name="LSCAAWARE"> F  </i>
   <i type="logical" name="LSCALU"> F  </i>
   <i type="logical" name="LASYNC"> F  </i>
   <i type="logical" name="LORBITALREAL"> F  </i>
  </separator>
  <separator name="miscellaneous" >
   <i type="int" name="IDIOT">     3</i>
   <i type="logical" name="LMUSIC"> F  </i>
   <v name="POMASS">     87.62000000     47.88000000     55.84700000     16.00000000</v>
   <v name="DARWINR">      0.00000000      0.00000000      0.00000000      0.00000000</v>
   <v name="DARWINV">      1.00000000      1.00000000      1.00000000      1.00000000</v>
   <i type="logical" name="LCORR"> T  </i>
  </separator>
  <i type="logical" name="GGA_COMPAT"> T  </i>
  <i type="logical" name="LBERRY"> F  </i>
  <i type="int" name="ICORELEVEL">     0</i>
  <i type="logical" name="LDAU"> T  </i>
  <v type="int" name="LDAUTYPE">     2</v>
  <v type="int" name="LDAUL">     0</v>
  <v name="LDAUU">      0.00000000</v>
  <v name="LDAUJ">      0.00000000</v>
  <i type="int" name="LDAUPRINT">     1</i>
  <i type="int" name="I_CONSTRAINED_M">     0</i>
  <separator name="electronic exchange-correlation" >
   <i type="string" name="GGA">--</i>
   <i type="int" name="VOSKOWN">     0</i>
   <i type="logical" name="LHFCALC"> F  </i>
   <i type="string" name="PRECFOCK"></i>
   <i type="logical" name="LSYMGRAD"> F  </i>
   <i type="logical" name="LHFONE"> F  </i>
   <i type="logical" name="LRHFCALC"> F  </i>
   <i type="logical" name="LTHOMAS"> F  </i>
   <i type="logical" name="LMODELHF"> F  </i>
   <i name="ENCUT4O">     -1.00000000</i>
   <i type="int" name="EXXOEP">     0</i>
   <i type="int" name="FOURORBIT">     0</i>
   <i name="AEXX">      0.00000000</i>
   <i name="HFALPHA">      0.00000000</i>
   <i name="MCALPHA">      0.00000000</i>
   <i name="ALDAX">      1.00000000</i>
   <i name="AGGAX">      1.00000000</i>
   <i name="ALDAC">      1.00000000</i>
   <i name="AGGAC">      1.00000000</i>
   <i type="int" name="NKREDX">     1</i>
   <i type="int" name="NKREDY">     1</i>
   <i type="int" name="NKREDZ">     1</i>
   <i type="logical" name="SHIFTRED"> F  </i>
   <i type="logical" name="ODDONLY"> F  </i>
   <i type="logical" name="EVENONLY"> F  </i>
   <i type="int" name="LMAXFOCK">     0</i>
   <i type="int" name="NMAXFOCKAE">     0</i>
   <i type="logical" name="LFOCKAEDFT"> F  </i>
   <i name="HFSCREEN">      0.00000000</i>
   <i name="HFSCREENC">      0.00000000</i>
   <i type="int" name="NBANDSGWLOW">     0</i>
  </separator>
  <separator name="vdW DFT" >
   <i type="logical" name="LUSE_VDW"> F  </i>
   <i name="Zab_VDW">     -0.84910000</i>
   <i name="PARAM1">      0.12340000</i>
   <i name="PARAM2">      1.00000000</i>
   <i name="PARAM3">      0.00000000</i>
  </separator>
  <separator name="model GW" >
   <i type="int" name="MODEL_GW">     0</i>
   <i name="MODEL_EPS0">      7.71477598</i>
   <i name="MODEL_ALPHA">      1.00000000</i>
  </separator>
  <separator name="linear response parameters" >
   <i type="logical" name="LEPSILON"> F  </i>
   <i type="logical" name="LRPA"> F  </i>
   <i type="logical" name="LNABLA"> F  </i>
   <i type="logical" name="LVEL"> F  </i>
   <i type="int" name="KINTER">     0</i>
   <i name="CSHIFT">      0.10000000</i>
   <i name="OMEGAMAX">     -1.00000000</i>
   <i name="DEG_THRESHOLD">      0.00200000</i>
  </separator>
  <separator name="orbital magnetization" >
   <i type="logical" name="NUCIND"> F  </i>
   <v name="MAGPOS">      0.00000000      0.00000000      0.00000000</v>
   <i type="logical" name="LNICSALL"> T  </i>
   <i type="logical" name="ORBITALMAG"> F  </i>
   <i type="logical" name="LMAGBLOCH"> F  </i>
   <i type="logical" name="LCHIMAG"> F  </i>
   <i type="logical" name="LGAUGE"> T  </i>
   <i type="int" name="MAGATOM">     0</i>
   <v name="MAGDIPOL">      0.00000000      0.00000000      0.00000000</v>
   <v name="AVECCONST">      0.00000000      0.00000000      0.00000000</v>
  </separator>
  <separator name="response functions" >
   <i type="logical" name="LADDER"> F  </i>
   <i type="logical" name="LFXC"> F  </i>
   <i type="logical" name="LHARTREE"> T  </i>
   <i type="int" name="IBSE">     0</i>
   <v type="int" name="KPOINT">    -1     0     0     0</v>
   <i type="logical" name="LTCTE"> F  </i>
   <i type="logical" name="LTETE"> F  </i>
   <i type="logical" name="LTRIPLET"> F  </i>
   <i type="logical" name="LFXCEPS"> F  </i>
   <i type="logical" name="LFXHEG"> F  </i>
   <i type="int" name="NATURALO">     0</i>
   <i type="logical" name="L2ORDER"> F  </i>
   <i type="logical" name="LUSEW"> F  </i>
   <i name="ENCUTGW">     -2.00000000</i>
   <i name="ENCUTGWSOFT">     -2.00000000</i>
   <i name="ENCUTLF">     -1.00000000</i>
   <i type="int" name="LMAXMP2">    -1</i>
   <i name="SCISSOR">      0.00000000</i>
   <i type="int" name="NOMEGA">     0</i>
   <i type="int" name="NOMEGAR">     0</i>
   <i type="int" name="NBANDSGW">    -1</i>
   <i type="int" name="NBANDSO">    -1</i>
   <i type="int" name="NBANDSV">    -1</i>
   <i type="int" name="NELM">    40</i>
   <i type="int" name="NELMHF">     1</i>
   <i type="int" name="DIM">     3</i>
   <i type="int" name="ANTIRES">     0</i>
   <i name="OMEGAMAX">    -30.00000000</i>
   <i name="OMEGAMIN">    -30.00000000</i>
   <i name="OMEGATL">   -200.00000000</i>
   <i type="int" name="OMEGAGRID">     0</i>
   <i name="CSHIFT">     -0.10000000</i>
   <i type="logical" name="SELFENERGY"> F  </i>
   <i type="logical" name="LSPECTRAL"> F  </i>
   <i type="logical" name="LSPECTRALGW"> F  </i>
   <i type="logical" name="LSINGLES"> F  </i>
   <i type="logical" name="LFERMIGW"> F  </i>
   <i type="logical" name="ODDONLYGW"> F  </i>
   <i type="logical" name="EVENONLYGW"> F  </i>
   <i type="int" name="NKREDLFX">     1</i>
   <i type="int" name="NKREDLFY">     1</i>
   <i type="int" name="NKREDLFZ">     1</i>
   <i type="int" name="MAXMEM">  1800</i>
   <i type="int" name="TELESCOPE">     0</i>
   <i type="int" name="TAUPAR">     1</i>
   <i type="int" name="OMEGAPAR">    -1</i>
   <i name="LAMBDA">      1.00000000</i>
  </separator>
  <separator name="External order field" >
   <i name="OFIELD_KAPPA">      0.00000000</i>
   <v name="OFIELD_K">      0.00000000      0.00000000      0.00000000</v>
   <i name="OFIELD_Q6_NEAR">      0.00000000</i>
   <i name="OFIELD_Q6_FAR">      0.00000000</i>
   <i name="OFIELD_A">      0.00000000</i>
  </separator>
 </parameters>
 <atominfo>
  <atoms>     156 </atoms>
  <types>       4 </types>
  <array name="atoms" >
   <dimension dim="1">ion</dimension>
   <field type="string">element</field>
   <field type="int">atomtype</field>
   <set>
    <rc><c>Sr</c><c>   1</c></rc>
    <rc><c>Sr</c><c>   1</c></rc>
    <rc><c>Sr</c><c>   1</c></rc>
    <rc><c>Sr</c><c>   1</c></rc>
    <rc><c>Sr</c><c>   1</c></rc>
    <rc><c>Sr</c><c>   1</c></rc>
    <rc><c>Sr</c><c>   1</c></rc>
    <rc><c>Sr</c><c>   1</c></rc>
    <rc><c>Sr</c><c>   1</c></rc>
    <rc><c>Sr</c><c>   1</c></rc>
    <rc><c>Sr</c><c>   1</c></rc>
    <rc><c>Sr</c><c>   1</c></rc>
    <rc><c>Sr</c><c>   1</c></rc>
    <rc><c>Sr</c><c>   1</c></rc>
    <rc><c>Sr</c><c>   1</c></rc>
    <rc><c>Sr</c><c>   1</c></rc>
    <rc><c>Sr</c><c>   1</c></rc>
    <rc><c>Sr</c><c>   1</c></rc>
    <rc><c>Sr</c><c>   1</c></rc>
    <rc><c>Sr</c><c>   1</c></rc>
    <rc><c>Sr</c><c>   1</c></rc>
    <rc><c>Sr</c><c>   1</c></rc>
    <rc><c>Sr</c><c>   1</c></rc>
    <rc><c>Sr</c><c>   1</c></rc>
    <rc><c>Sr</c><c>   1</c></rc>
    <rc><c>Sr</c><c>   1</c></rc>
    <rc><c>Sr</c><c>   1</c></rc>
    <rc><c>Sr</c><c>   1</c></rc>
    <rc><c>Sr</c><c>   1</c></rc>
    <rc><c>Sr</c><c>   1</c></rc>
    <rc><c>Sr</c><c>   1</c></rc>
    <rc><c>Sr</c><c>   1</c></rc>
    <rc><c>Ti</c><c>   2</c></rc>
    <rc><c>Ti</c><c>   2</c></rc>
    <rc><c>Ti</c><c>   2</c></rc>
    <rc><c>Ti</c><c>   2</c></rc>
    <rc><c>Ti</c><c>   2</c></rc>
    <rc><c>Ti</c><c>   2</c></rc>
    <rc><c>Ti</c><c>   2</c></rc>
    <rc><c>Ti</c><c>   2</c></rc>
    <rc><c>Ti</c><c>   2</c></rc>
    <rc><c>Ti</c><c>   2</c></rc>
    <rc><c>Ti</c><c>   2</c></rc>
    <rc><c>Ti</c><c>   2</c></rc>
    <rc><c>Ti</c><c>   2</c></rc>
    <rc><c>Ti</c><c>   2</c></rc>
    <rc><c>Ti</c><c>   2</c></rc>
    <rc><c>Ti</c><c>   2</c></rc>
    <rc><c>Ti</c><c>   2</c></rc>
    <rc><c>Ti</c><c>   2</c></rc>
    <rc><c>Ti</c><c>   2</c></rc>
    <rc><c>Ti</c><c>   2</c></rc>
    <rc><c>Ti</c><c>   2</c></rc>
    <rc><c>Ti</c><c>   2</c></rc>
    <rc><c>Ti</c><c>   2</c></rc>
    <rc><c>Ti</c><c>   2</c></rc>
    <rc><c>Fe</c><c>   3</c></rc>
    <rc><c>Fe</c><c>   3</c></rc>
    <rc><c>Fe</c><c>   3</c></rc>
    <rc><c>Fe</c><c>   3</c></rc>
    <rc><c>Fe</c><c>   3</c></rc>
    <rc><c>Fe</c><c>   3</c></rc>
    <rc><c>Fe</c><c>   3</c></rc>
    <rc><c>Fe</c><c>   3</c></rc>
    <rc><c>O </c><c>   4</c></rc>
    <rc><c>O </c><c>   4</c></rc>
    <rc><c>O </c><c>   4</c></rc>
    <rc><c>O </c><c>   4</c></rc>
    <rc><c>O </c><c>   4</c></rc>
    <rc><c>O </c><c>   4</c></rc>
    <rc><c>O </c><c>   4</c></rc>
    <rc><c>O </c><c>   4</c></rc>
    <rc><c>O </c><c>   4</c></rc>
    <rc><c>O </c><c>   4</c></rc>
    <rc><c>O </c><c>   4</c></rc>
    <rc><c>O </c><c>   4</c></rc>
    <rc><c>O </c><c>   4</c></rc>
    <rc><c>O </c><c>   4</c></rc>
    <rc><c>O </c><c>   4</c></rc>
    <rc><c>O </c><c>   4</c></rc>
    <rc><c>O </c><c>   4</c></rc>
    <rc><c>O </c><c>   4</c></rc>
    <rc><c>O </c><c>   4</c></rc>
    <rc><c>O </c><c>   4</c></rc>
    <rc><c>O </c><c>   4</c></rc>
    <rc><c>O </c><c>   4</c></rc>
    <rc><c>O </c><c>   4</c></rc>
    <rc><c>O </c><c>   4</c></rc>
    <rc><c>O </c><c>   4</c></rc>
    <rc><c>O </c><c>   4</c></rc>
    <rc><c>O </c><c>   4</c></rc>
    <rc><c>O </c><c>   4</c></rc>
    <rc><c>O </c><c>   4</c></rc>
    <rc><c>O </c><c>   4</c></rc>
    <rc><c>O </c><c>   4</c></rc>
    <rc><c>O </c><c>   4</c></rc>
    <rc><c>O </c><c>   4</c></rc>
    <rc><c>O </c><c>   4</c></rc>
    <rc><c>O </c><c>   4</c></rc>
    <rc><c>O </c><c>   4</c></rc>
    <rc><c>O </c><c>   4</c></rc>
    <rc><c>O </c><c>   4</c></rc>
    <rc><c>O </c><c>   4</c></rc>
    <rc><c>O </c><c>   4</c></rc>
    <rc><c>O </c><c>   4</c></rc>
    <rc><c>O </c><c>   4</c></rc>
    <rc><c>O </c><c>   4</c></rc>
    <rc><c>O </c><c>   4</c></rc>
    <rc><c>O </c><c>   4</c></rc>
    <rc><c>O </c><c>   4</c></rc>
    <rc><c>O </c><c>   4</c></rc>
    <rc><c>O </c><c>   4</c></rc>
    <rc><c>O </c><c>   4</c></rc>
    <rc><c>O </c><c>   4</c></rc>
    <rc><c>O </c><c>   4</c></rc>
    <rc><c>O </c><c>   4</c></rc>
    <rc><c>O </c><c>   4</c></rc>
    <rc><c>O </c><c>   4</c></rc>
    <rc><c>O </c><c>   4</c></rc>
    <rc><c>O </c><c>   4</c></rc>
    <rc><c>O </c><c>   4</c></rc>
    <rc><c>O </c><c>   4</c></rc>
    <rc><c>O </c><c>   4</c></rc>
    <rc><c>O </c><c>   4</c></rc>
    <rc><c>O </c><c>   4</c></rc>
    <rc><c>O </c><c>   4</c></rc>
    <rc><c>O </c><c>   4</c></rc>
    <rc><c>O </c><c>   4</c></rc>
    <rc><c>O </c><c>   4</c></rc>
    <rc><c>O </c><c>   4</c></rc>
    <rc><c>O </c><c>   4</c></rc>
    <rc><c>O </c><c>   4</c></rc>
    <rc><c>O </c><c>   4</c></rc>
    <rc><c>O </c><c>   4</c></rc>
    <rc><c>O </c><c>   4</c></rc>
    <rc><c>O </c><c>   4</c></rc>
    <rc><c>O </c><c>   4</c></rc>
    <rc><c>O </c><c>   4</c></rc>
    <rc><c>O </c><c>   4</c></rc>
    <rc><c>O </c><c>   4</c></rc>
    <rc><c>O </c><c>   4</c></rc>
    <rc><c>O </c><c>   4</c></rc>
    <rc><c>O </c><c>   4</c></rc>
    <rc><c>O </c><c>   4</c></rc>
    <rc><c>O </c><c>   4</c></rc>
    <rc><c>O </c><c>   4</c></rc>
    <rc><c>O </c><c>   4</c></rc>
    <rc><c>O </c><c>   4</c></rc>
    <rc><c>O </c><c>   4</c></rc>
    <rc><c>O </c><c>   4</c></rc>
    <rc><c>O </c><c>   4</c></rc>
    <rc><c>O </c><c>   4</c></rc>
    <rc><c>O </c><c>   4</c></rc>
    <rc><c>O </c><c>   4</c></rc>
    <rc><c>O </c><c>   4</c></rc>
    <rc><c>O </c><c>   4</c></rc>
   </set>
  </array>
  <array name="atomtypes" >
   <dimension dim="1">type</dimension>
   <field type="int">atomspertype</field>
   <field type="string">element</field>
   <field>mass</field>
   <field>valence</field>
   <field type="string">pseudopotential</field>
   <set>
    <rc><c>  32</c><c>Sr</c><c>     87.62000000</c><c>     10.00000000</c><c>  PAW_PBE Sr_sv 07Sep2000               </c></rc>
    <rc><c>  24</c><c>Ti</c><c>     47.88000000</c><c>      4.00000000</c><c>  PAW_PBE Ti 08Apr2002                  </c></rc>
    <rc><c>   8</c><c>Fe</c><c>     55.84700000</c><c>      8.00000000</c><c>  PAW_PBE Fe 06Sep2000                  </c></rc>
    <rc><c>  92</c><c>O </c><c>     16.00000000</c><c>      6.00000000</c><c>  PAW_PBE O 08Apr2002                   </c></rc>
   </set>
  </array>
 </atominfo>
 <structure name="initialpos" >
  <crystal>
   <varray name="basis" >
    <v>      11.20708069       0.00421570       0.00195162 </v>
    <v>       0.00419690      11.21679902      -0.00781253 </v>
    <v>       0.00279830      -0.01099770      15.95642200 </v>
   </varray>
   <i name="volume">   2005.84175543 </i>
   <varray name="rec_basis" >
    <v>       0.08922932      -0.00003340      -0.00001567 </v>
    <v>      -0.00003355       0.08915205       0.00006145 </v>
    <v>      -0.00001093       0.00004365       0.06267072 </v>
   </varray>
  </crystal>
  <varray name="positions" >
   <v>       0.00323211       0.24829876       0.11946681 </v>
   <v>       0.00058037       0.25010626       0.62286783 </v>
   <v>       0.00234570       0.74707575       0.12140247 </v>
   <v>       0.99873545       0.75178047       0.62364744 </v>
   <v>       0.49465924       0.24065196       0.11928727 </v>
   <v>       0.49915106       0.25172759       0.62403882 </v>
   <v>       0.50121318       0.75760318       0.11257208 </v>
   <v>       0.50012813       0.75053241       0.62564153 </v>
   <v>       0.00071350       0.24685941       0.37876127 </v>
   <v>       0.00352526       0.24947172       0.87853325 </v>
   <v>       0.99987837       0.75625280       0.38746334 </v>
   <v>       0.99872147       0.74908902       0.87282829 </v>
   <v>       0.49917751       0.23811332       0.37775797 </v>
   <v>       0.49713711       0.25102538       0.87846396 </v>
   <v>       0.49795562       0.75529774       0.38348438 </v>
   <v>       0.50024390       0.74991407       0.87454470 </v>
   <v>       0.24787879       0.01132099       0.11697987 </v>
   <v>       0.24779210       0.00159088       0.62344456 </v>
   <v>       0.24444090       0.48782395       0.11869515 </v>
   <v>       0.24868037       0.50004262       0.62589259 </v>
   <v>       0.75056717       0.00655866       0.12227825 </v>
   <v>       0.75205192       0.00163483       0.62463904 </v>
   <v>       0.75807558       0.48758579       0.11762416 </v>
   <v>       0.75246502       0.49989171       0.62252471 </v>
   <v>       0.24341458       0.00582847       0.38152607 </v>
   <v>       0.24816859       0.00366261       0.87520080 </v>
   <v>       0.24074043       0.49972319       0.38251694 </v>
   <v>       0.25027096       0.49705781       0.87843012 </v>
   <v>       0.75312070       0.00549845       0.38179880 </v>
   <v>       0.74956349       0.99942107       0.87803399 </v>
   <v>       0.75572926       0.49874428       0.37664886 </v>
   <v>       0.75198068       0.49881870       0.87413268 </v>
   <v>       0.24736907       0.24669820       0.25031370 </v>
   <v>       0.99980168       0.49995729       0.74804226 </v>
   <v>       0.75122684       0.74943092       0.50149783 </v>
   <v>       0.00188010       0.50267828       0.99939235 </v>
   <v>       0.74971238       0.75038317       0.74815214 </v>
   <v>       0.49808047       0.99867280       0.99907527 </v>
   <v>       0.00045490       0.99667117       0.00164846 </v>
   <v>       0.24775608       0.75003341       0.50310604 </v>
   <v>       0.99893754       0.99988624       0.74946207 </v>
   <v>       0.00106926       0.49602866       0.24800742 </v>
   <v>       0.49936085       0.50212112       0.49866327 </v>
   <v>       0.25026247       0.25129899       0.75222470 </v>
   <v>       0.74906406       0.25099046       0.75125526 </v>
   <v>       0.75111697       0.24523209       0.25029813 </v>
   <v>       0.50050871       0.50052371       0.74994264 </v>
   <v>       0.24953220       0.75111085       0.74874617 </v>
   <v>       0.00143917       0.00343383       0.25052551 </v>
   <v>       0.49911373       0.50536581       0.00402159 </v>
   <v>       0.49583807       0.99208213       0.24658654 </v>
   <v>       0.49957564       0.00066789       0.75000035 </v>
   <v>       0.75185096       0.25181608       0.49925409 </v>
   <v>       0.49996368       0.99848169       0.50148323 </v>
   <v>       0.24761303       0.25154125       0.49989700 </v>
   <v>       0.74953617       0.24957728       0.99932129 </v>
   <v>       0.23958317       0.76614577       0.26078590 </v>
   <v>       0.99926854       0.00164640       0.50173859 </v>
   <v>       0.24719409       0.75070828       0.98878096 </v>
   <v>       0.75124721       0.74913809       0.99034350 </v>
   <v>       0.99954160       0.50186958       0.50108918 </v>
   <v>       0.50313205       0.47087130       0.25080351 </v>
   <v>       0.24967804       0.24987768       0.99860528 </v>
   <v>       0.76836798       0.75948678       0.26045086 </v>
   <v>       0.10629806       0.14505996       0.25067050 </v>
   <v>       0.10915174       0.14110672       0.75184131 </v>
   <v>       0.39373552       0.83302246       0.24190171 </v>
   <v>       0.99814632       0.48615644       0.12521043 </v>
   <v>       0.61190764       0.12998154       0.24445741 </v>
   <v>       0.60744288       0.14195872       0.74631797 </v>
   <v>       0.39358424       0.34576155       0.25213499 </v>
   <v>       0.39320284       0.36092036       0.75375736 </v>
   <v>       0.64141414       0.39415331       0.74792764 </v>
   <v>       0.63413293       0.11349577       0.50184518 </v>
   <v>       0.89416580       0.36074588       0.25754707 </v>
   <v>       0.88976136       0.35914525       0.75792075 </v>
   <v>       0.89849228       0.85992561       0.24750750 </v>
   <v>       0.89013800       0.85817628       0.74964410 </v>
   <v>       0.35716234       0.09505090       0.25279215 </v>
   <v>       0.35877210       0.10908543       0.74977734 </v>
   <v>       0.13609381       0.11763302       0.50459967 </v>
   <v>       0.24999299       0.24200301       0.37479276 </v>
   <v>       0.85844222       0.10823169       0.25665978 </v>
   <v>       0.85733569       0.11060948       0.75710077 </v>
   <v>       0.84951216       0.61497962       0.23227283 </v>
   <v>       0.14705483       0.63683904       0.22303063 </v>
   <v>       0.87685088       0.12851372       0.99134797 </v>
   <v>       0.14109709       0.39207393       0.75246154 </v>
   <v>       0.14455365       0.89823390       0.23833197 </v>
   <v>       0.37437656       0.38434084       0.00575899 </v>
   <v>       0.65026341       0.39183423       0.24611649 </v>
   <v>       0.14360790       0.39151971       0.25423516 </v>
   <v>       0.64009900       0.85541346       0.22452772 </v>
   <v>       0.64119678       0.89231943       0.74925495 </v>
   <v>       0.38117443       0.12942537       0.99808110 </v>
   <v>       0.36572328       0.38848648       0.49218803 </v>
   <v>       0.36750646       0.87810175       0.00476458 </v>
   <v>       0.36370105       0.88726318       0.49384062 </v>
   <v>       0.86897619       0.37993122       0.99322885 </v>
   <v>       0.86302725       0.38609961       0.49141860 </v>
   <v>       0.86758812       0.87623598       0.01289722 </v>
   <v>       0.86185463       0.88433155       0.49603096 </v>
   <v>       0.60734822       0.64225610       0.74793512 </v>
   <v>       0.61790552       0.37260939       0.01501955 </v>
   <v>       0.13256375       0.62162055       0.01208686 </v>
   <v>       0.13728213       0.61564555       0.50769140 </v>
   <v>       0.62877094       0.12104676       0.00482203 </v>
   <v>       0.10902144       0.64143224       0.74270117 </v>
   <v>       0.63399602       0.62333548       0.01711332 </v>
   <v>       0.63629923       0.61150883       0.50179929 </v>
   <v>       0.39154941       0.85910578       0.75475690 </v>
   <v>       0.11593392       0.36674676       0.49319309 </v>
   <v>       0.12246902       0.86815724       0.01596159 </v>
   <v>       0.11586810       0.86457652       0.50511798 </v>
   <v>       0.14074619       0.89201407       0.74508035 </v>
   <v>       0.61072348       0.36548503       0.49447240 </v>
   <v>       0.62250237       0.87050312       0.00427841 </v>
   <v>       0.61227395       0.86248474       0.50269839 </v>
   <v>       0.38728142       0.13479279       0.49737298 </v>
   <v>       0.37844535       0.63467547       0.00205895 </v>
   <v>       0.38784429       0.63831393       0.50053884 </v>
   <v>       0.25440846       0.25738483       0.62484981 </v>
   <v>       0.24935553       0.24649593       0.12726836 </v>
   <v>       0.35949763       0.60909194       0.75473088 </v>
   <v>       0.88505733       0.63786502       0.50198880 </v>
   <v>       0.99285922       0.01532033       0.12570772 </v>
   <v>       0.50995605       0.50472591       0.88037995 </v>
   <v>       0.99476343       0.48874485       0.62626840 </v>
   <v>       0.49265857       0.00110679       0.12484240 </v>
   <v>       0.49429910       0.99642437       0.62475514 </v>
   <v>       0.48256514       0.53435054       0.14319556 </v>
   <v>       0.49526912       0.49767128       0.62406384 </v>
   <v>       0.00863896       0.99680587       0.37359478 </v>
   <v>       0.00208293       0.98536012       0.87700988 </v>
   <v>       0.00389588       0.52703944       0.36682683 </v>
   <v>       0.00345197       0.51350239       0.87591429 </v>
   <v>       0.51151972       0.98871378       0.36979205 </v>
   <v>       0.50346291       0.99918238       0.87541058 </v>
   <v>       0.85821908       0.60899390       0.74810472 </v>
   <v>       0.24314579       0.74145000       0.37659525 </v>
   <v>       0.87933254       0.63096778       0.00996183 </v>
   <v>       0.25315772       0.25239921       0.87380818 </v>
   <v>       0.88245040       0.13700535       0.49626412 </v>
   <v>       0.23723062       0.75230762       0.87187961 </v>
   <v>       0.74013532       0.24575015       0.37353767 </v>
   <v>       0.73263901       0.25421333       0.87608274 </v>
   <v>       0.73964623       0.74169863       0.37485782 </v>
   <v>       0.74923826       0.74642676       0.87250382 </v>
   <v>       0.11983950       0.37191930       0.99774414 </v>
   <v>       0.99113159       0.00492615       0.62761468 </v>
   <v>       0.12745939       0.11831401       0.99698440 </v>
   <v>       0.26170169       0.75369869       0.62609088 </v>
   <v>       0.76483406       0.24653799       0.12574143 </v>
   <v>       0.75369991       0.25487868       0.62485377 </v>
   <v>       0.49731739       0.52914304       0.36222238 </v>
   <v>       0.74930302       0.75167584       0.62501707 </v>
  </varray>
 </structure>
 <calculation>
  <scstep>
   <time name="dav">  311.71  311.73</time>
   <time name="total">  315.45  316.13</time>
   <energy>
    <i name="alphaZ">   5626.24459646 </i>
    <i name="ewald"> -61416.30210264 </i>
    <i name="hartreedc"> -16108.56706361 </i>
    <i name="XCdc">   2963.62624511 </i>
    <i name="pawpsdc"> 112922.50197743 </i>
    <i name="pawaedc">-111823.02795221 </i>
    <i name="eentropy">     -0.00000000 </i>
    <i name="bandstr">  -7069.30544952 </i>
    <i name="atom">  73783.44779670 </i>
    <i name="e_fr_energy">  -1121.38195229 </i>
    <i name="e_wo_entrp">  -1121.38195229 </i>
    <i name="e_0_energy">  -1121.38195229 </i>
   </energy>
  </scstep>
  <scstep>
   <time name="diag">   33.21   33.21</time>
   <time name="diis">   31.22   31.23</time>
   <time name="orth">   18.83   18.84</time>
   <time name="total">   87.05   87.11</time>
   <energy>
    <i name="e_fr_energy">  -1121.38194978 </i>
    <i name="e_wo_entrp">  -1121.38194978 </i>
    <i name="e_0_energy">  -1121.38194978 </i>
   </energy>
  </scstep>
  <scstep>
   <time name="diag">   33.23   33.26</time>
   <time name="diis">   29.73   29.75</time>
   <time name="orth">   18.75   18.77</time>
   <time name="total">   85.43   85.54</time>
   <energy>
    <i name="e_fr_energy">  -1121.38194974 </i>
    <i name="e_wo_entrp">  -1121.38194974 </i>
    <i name="e_0_energy">  -1121.38194974 </i>
   </energy>
  </scstep>
  <scstep>
   <time name="diag">   33.20   33.22</time>
   <time name="diis">   25.87   25.89</time>
   <time name="orth">   18.75   18.77</time>
   <time name="total">   81.60   81.69</time>
   <energy>
    <i name="e_fr_energy">  -1121.38195000 </i>
    <i name="e_wo_entrp">  -1121.38195000 </i>
    <i name="e_0_energy">  -1121.38195000 </i>
   </energy>
  </scstep>
  <scstep>
   <time name="diag">   33.23   33.24</time>
   <time name="diis">   25.34   25.36</time>
   <time name="orth">   18.75   18.75</time>
   <time name="total">   81.05   81.15</time>
   <energy>
    <i name="e_fr_energy">  -1121.38195023 </i>
    <i name="e_wo_entrp">  -1121.38195023 </i>
    <i name="e_0_energy">  -1121.38195023 </i>
   </energy>
  </scstep>
  <scstep>
   <time name="diag">   33.17   33.20</time>
   <time name="diis">   23.99   23.99</time>
   <time name="orth">   18.78   18.78</time>
   <time name="total">   79.68   79.76</time>
   <energy>
    <i name="e_fr_energy">  -1121.38195042 </i>
    <i name="e_wo_entrp">  -1121.38195042 </i>
    <i name="e_0_energy">  -1121.38195042 </i>
   </energy>
  </scstep>
  <scstep>
   <time name="diag">   33.28   33.29</time>
   <time name="diis">   23.61   23.62</time>
   <time name="orth">   18.77   18.77</time>
   <time name="total">   79.45   79.53</time>
   <energy>
    <i name="e_fr_energy">  -1121.38195049 </i>
    <i name="e_wo_entrp">  -1121.38195049 </i>
    <i name="e_0_energy">  -1121.38195049 </i>
   </energy>
  </scstep>
  <scstep>
   <time name="diag">   33.23   33.25</time>
   <time name="diis">   23.09   23.10</time>
   <time name="orth">   18.78   18.79</time>
   <time name="total">   75.68   75.83</time>
   <energy>
    <i name="alphaZ">   5626.24459646 </i>
    <i name="ewald"> -61416.30210264 </i>
    <i name="hartreedc"> -16108.55956573 </i>
    <i name="XCdc">   2963.62678495 </i>
    <i name="pawpsdc"> 112922.13980032 </i>
    <i name="pawaedc">-111822.65818775 </i>
    <i name="eentropy">     -0.00000000 </i>
    <i name="bandstr">  -7069.32107288 </i>
    <i name="atom">  73783.44779670 </i>
    <i name="e_fr_energy">  -1121.38195057 </i>
    <i name="e_wo_entrp">  -1121.38195057 </i>
    <i name="e_0_energy">  -1121.38195057 </i>
   </energy>
  </scstep>
  <structure>
   <crystal>
    <varray name="basis" >
     <v>      11.20708069       0.00421570       0.00195162 </v>
     <v>       0.00419690      11.21679902      -0.00781253 </v>
     <v>       0.00279830      -0.01099770      15.95642200 </v>
    </varray>
    <i name="volume">   2005.84175543 </i>
    <varray name="rec_basis" >
     <v>       0.08922932      -0.00003340      -0.00001567 </v>
     <v>      -0.00003355       0.08915205       0.00006145 </v>
     <v>      -0.00001093       0.00004365       0.06267072 </v>
    </varray>
   </crystal>
   <varray name="positions" >
    <v>       0.00323211       0.24829876       0.11946681 </v>
    <v>       0.00058037       0.25010626       0.62286783 </v>
    <v>       0.00234570       0.74707575       0.12140247 </v>
    <v>       0.99873545       0.75178047       0.62364744 </v>
    <v>       0.49465924       0.24065196       0.11928727 </v>
    <v>       0.49915106       0.25172759       0.62403882 </v>
    <v>       0.50121318       0.75760318       0.11257208 </v>
    <v>       0.50012813       0.75053241       0.62564153 </v>
    <v>       0.00071350       0.24685941       0.37876127 </v>
    <v>       0.00352526       0.24947172       0.87853325 </v>
    <v>       0.99987837       0.75625280       0.38746334 </v>
    <v>       0.99872147       0.74908902       0.87282829 </v>
    <v>       0.49917751       0.23811332       0.37775797 </v>
    <v>       0.49713711       0.25102538       0.87846396 </v>
    <v>       0.49795562       0.75529774       0.38348438 </v>
    <v>       0.50024390       0.74991407       0.87454470 </v>
    <v>       0.24787879       0.01132099       0.11697987 </v>
    <v>       0.24779210       0.00159088       0.62344456 </v>
    <v>       0.24444090       0.48782395       0.11869515 </v>
    <v>       0.24868037       0.50004262       0.62589259 </v>
    <v>       0.75056717       0.00655866       0.12227825 </v>
    <v>       0.75205192       0.00163483       0.62463904 </v>
    <v>       0.75807558       0.48758579       0.11762416 </v>
    <v>       0.75246502       0.49989171       0.62252471 </v>
    <v>       0.24341458       0.00582847       0.38152607 </v>
    <v>       0.24816859       0.00366261       0.87520080 </v>
    <v>       0.24074043       0.49972319       0.38251694 </v>
    <v>       0.25027096       0.49705781       0.87843012 </v>
    <v>       0.75312070       0.00549845       0.38179880 </v>
    <v>       0.74956349       0.99942107       0.87803399 </v>
    <v>       0.75572926       0.49874428       0.37664886 </v>
    <v>       0.75198068       0.49881870       0.87413268 </v>
    <v>       0.24736907       0.24669820       0.25031370 </v>
    <v>       0.99980168       0.49995729       0.74804226 </v>
    <v>       0.75122684       0.74943092       0.50149783 </v>
    <v>       0.00188010       0.50267828       0.99939235 </v>
    <v>       0.74971238       0.75038317       0.74815214 </v>
    <v>       0.49808047       0.99867280       0.99907527 </v>
    <v>       0.00045490       0.99667117       0.00164846 </v>
    <v>       0.24775608       0.75003341       0.50310604 </v>
    <v>       0.99893754       0.99988624       0.74946207 </v>
    <v>       0.00106926       0.49602866       0.24800742 </v>
    <v>       0.49936085       0.50212112       0.49866327 </v>
    <v>       0.25026247       0.25129899       0.75222470 </v>
    <v>       0.74906406       0.25099046       0.75125526 </v>
    <v>       0.75111697       0.24523209       0.25029813 </v>
    <v>       0.50050871       0.50052371       0.74994264 </v>
    <v>       0.24953220       0.75111085       0.74874617 </v>
    <v>       0.00143917       0.00343383       0.25052551 </v>
    <v>       0.49911373       0.50536581       0.00402159 </v>
    <v>       0.49583807       0.99208213       0.24658654 </v>
    <v>       0.49957564       0.00066789       0.75000035 </v>
    <v>       0.75185096       0.25181608       0.49925409 </v>
    <v>       0.49996368       0.99848169       0.50148323 </v>
    <v>       0.24761303       0.25154125       0.49989700 </v>
    <v>       0.74953617       0.24957728       0.99932129 </v>
    <v>       0.23958317       0.76614577       0.26078590 </v>
    <v>       0.99926854       0.00164640       0.50173859 </v>
    <v>       0.24719409       0.75070828       0.98878096 </v>
    <v>       0.75124721       0.74913809       0.99034350 </v>
    <v>       0.99954160       0.50186958       0.50108918 </v>
    <v>       0.50313205       0.47087130       0.25080351 </v>
    <v>       0.24967804       0.24987768       0.99860528 </v>
    <v>       0.76836798       0.75948678       0.26045086 </v>
    <v>       0.10629806       0.14505996       0.25067050 </v>
    <v>       0.10915174       0.14110672       0.75184131 </v>
    <v>       0.39373552       0.83302246       0.24190171 </v>
    <v>       0.99814632       0.48615644       0.12521043 </v>
    <v>       0.61190764       0.12998154       0.24445741 </v>
    <v>       0.60744288       0.14195872       0.74631797 </v>
    <v>       0.39358424       0.34576155       0.25213499 </v>
    <v>       0.39320284       0.36092036       0.75375736 </v>
    <v>       0.64141414       0.39415331       0.74792764 </v>
    <v>       0.63413293       0.11349577       0.50184518 </v>
    <v>       0.89416580       0.36074588       0.25754707 </v>
    <v>       0.88976136       0.35914525       0.75792075 </v>
    <v>       0.89849228       0.85992561       0.24750750 </v>
    <v>       0.89013800       0.85817628       0.74964410 </v>
    <v>       0.35716234       0.09505090       0.25279215 </v>
    <v>       0.35877210       0.10908543       0.74977734 </v>
    <v>       0.13609381       0.11763302       0.50459967 </v>
    <v>       0.24999299       0.24200301       0.37479276 </v>
    <v>       0.85844222       0.10823169       0.25665978 </v>
    <v>       0.85733569       0.11060948       0.75710077 </v>
    <v>       0.84951216       0.61497962       0.23227283 </v>
    <v>       0.14705483       0.63683904       0.22303063 </v>
    <v>       0.87685088       0.12851372       0.99134797 </v>
    <v>       0.14109709       0.39207393       0.75246154 </v>
    <v>       0.14455365       0.89823390       0.23833197 </v>
    <v>       0.37437656       0.38434084       0.00575899 </v>
    <v>       0.65026341       0.39183423       0.24611649 </v>
    <v>       0.14360790       0.39151971       0.25423516 </v>
    <v>       0.64009900       0.85541346       0.22452772 </v>
    <v>       0.64119678       0.89231943       0.74925495 </v>
    <v>       0.38117443       0.12942537       0.99808110 </v>
    <v>       0.36572328       0.38848648       0.49218803 </v>
    <v>       0.36750646       0.87810175       0.00476458 </v>
    <v>       0.36370105       0.88726318       0.49384062 </v>
    <v>       0.86897619       0.37993122       0.99322885 </v>
    <v>       0.86302725       0.38609961       0.49141860 </v>
    <v>       0.86758812       0.87623598       0.01289722 </v>
    <v>       0.86185463       0.88433155       0.49603096 </v>
    <v>       0.60734822       0.64225610       0.74793512 </v>
    <v>       0.61790552       0.37260939       0.01501955 </v>
    <v>       0.13256375       0.62162055       0.01208686 </v>
    <v>       0.13728213       0.61564555       0.50769140 </v>
    <v>       0.62877094       0.12104676       0.00482203 </v>
    <v>       0.10902144       0.64143224       0.74270117 </v>
    <v>       0.63399602       0.62333548       0.01711332 </v>
    <v>       0.63629923       0.61150883       0.50179929 </v>
    <v>       0.39154941       0.85910578       0.75475690 </v>
    <v>       0.11593392       0.36674676       0.49319309 </v>
    <v>       0.12246902       0.86815724       0.01596159 </v>
    <v>       0.11586810       0.86457652       0.50511798 </v>
    <v>       0.14074619       0.89201407       0.74508035 </v>
    <v>       0.61072348       0.36548503       0.49447240 </v>
    <v>       0.62250237       0.87050312       0.00427841 </v>
    <v>       0.61227395       0.86248474       0.50269839 </v>
    <v>       0.38728142       0.13479279       0.49737298 </v>
    <v>       0.37844535       0.63467547       0.00205895 </v>
    <v>       0.38784429       0.63831393       0.50053884 </v>
    <v>       0.25440846       0.25738483       0.62484981 </v>
    <v>       0.24935553       0.24649593       0.12726836 </v>
    <v>       0.35949763       0.60909194       0.75473088 </v>
    <v>       0.88505733       0.63786502       0.50198880 </v>
    <v>       0.99285922       0.01532033       0.12570772 </v>
    <v>       0.50995605       0.50472591       0.88037995 </v>
    <v>       0.99476343       0.48874485       0.62626840 </v>
    <v>       0.49265857       0.00110679       0.12484240 </v>
    <v>       0.49429910       0.99642437       0.62475514 </v>
    <v>       0.48256514       0.53435054       0.14319556 </v>
    <v>       0.49526912       0.49767128       0.62406384 </v>
    <v>       0.00863896       0.99680587       0.37359478 </v>
    <v>       0.00208293       0.98536012       0.87700988 </v>
    <v>       0.00389588       0.52703944       0.36682683 </v>
    <v>       0.00345197       0.51350239       0.87591429 </v>
    <v>       0.51151972       0.98871378       0.36979205 </v>
    <v>       0.50346291       0.99918238       0.87541058 </v>
    <v>       0.85821908       0.60899390       0.74810472 </v>
    <v>       0.24314579       0.74145000       0.37659525 </v>
    <v>       0.87933254       0.63096778       0.00996183 </v>
    <v>       0.25315772       0.25239921       0.87380818 </v>
    <v>       0.88245040       0.13700535       0.49626412 </v>
    <v>       0.23723062       0.75230762       0.87187961 </v>
    <v>       0.74013532       0.24575015       0.37353767 </v>
    <v>       0.73263901       0.25421333       0.87608274 </v>
    <v>       0.73964623       0.74169863       0.37485782 </v>
    <v>       0.74923826       0.74642676       0.87250382 </v>
    <v>       0.11983950       0.37191930       0.99774414 </v>
    <v>       0.99113159       0.00492615       0.62761468 </v>
    <v>       0.12745939       0.11831401       0.99698440 </v>
    <v>       0.26170169       0.75369869       0.62609088 </v>
    <v>       0.76483406       0.24653799       0.12574143 </v>
    <v>       0.75369991       0.25487868       0.62485377 </v>
    <v>       0.49731739       0.52914304       0.36222238 </v>
    <v>       0.74930302       0.75167584       0.62501707 </v>
   </varray>
  </structure>
  <varray name="forces" >
   <v>       0.00070580      -0.01175293       0.00838970 </v>
   <v>       0.00381989      -0.00137371       0.00273803 </v>
   <v>       0.00500919       0.00086587       0.01546235 </v>
   <v>      -0.00908899      -0.00695548       0.01486445 </v>
   <v>      -0.00129571       0.01098221       0.01067698 </v>
   <v>      -0.00176405       0.00776131      -0.00402423 </v>
   <v>      -0.00379762       0.01128846       0.01282083 </v>
   <v>      -0.00381760      -0.00407565       0.00729178 </v>
   <v>       0.00333146      -0.00040404      -0.01013874 </v>
   <v>       0.00186265       0.00017385      -0.01071370 </v>
   <v>       0.00474945       0.00530241      -0.01038395 </v>
   <v>      -0.00132194      -0.00968860       0.00412430 </v>
   <v>      -0.00088781       0.00793401      -0.02053890 </v>
   <v>      -0.00488473       0.00235894       0.01063567 </v>
   <v>      -0.00361118       0.01157450      -0.01351579 </v>
   <v>       0.00063943      -0.00767643      -0.00643355 </v>
   <v>      -0.00702959      -0.00337335       0.00907541 </v>
   <v>      -0.00193157       0.00294950      -0.00049681 </v>
   <v>       0.01255031      -0.00935720       0.01198385 </v>
   <v>      -0.00134552       0.01169460       0.00664074 </v>
   <v>       0.00344189      -0.00893397       0.01434750 </v>
   <v>       0.00210849      -0.01137324       0.00219336 </v>
   <v>      -0.00226352      -0.00503283      -0.00650159 </v>
   <v>      -0.00226363       0.00761559       0.00148592 </v>
   <v>      -0.00185791      -0.00871790      -0.00181016 </v>
   <v>      -0.00724499      -0.00976384      -0.00128212 </v>
   <v>      -0.00545530      -0.00276944      -0.01193777 </v>
   <v>      -0.00197565       0.00996691      -0.00069263 </v>
   <v>      -0.00690505       0.00367316      -0.02205812 </v>
   <v>       0.00528862      -0.00003209       0.00873837 </v>
   <v>       0.00454998       0.00341056      -0.00797582 </v>
   <v>       0.00269400       0.00644602      -0.00977873 </v>
   <v>       0.00717845       0.02170272       0.00948389 </v>
   <v>      -0.00292889       0.00831676      -0.00408437 </v>
   <v>      -0.00491013      -0.01248185       0.00659632 </v>
   <v>       0.01762349      -0.00662001      -0.00814128 </v>
   <v>       0.00432291      -0.01518022       0.00182022 </v>
   <v>      -0.00357754      -0.00002316       0.02462179 </v>
   <v>      -0.00008178      -0.00325292       0.02495539 </v>
   <v>       0.00754727       0.00420303       0.00656768 </v>
   <v>       0.03812246       0.01216991      -0.01720567 </v>
   <v>       0.01019710       0.02173875       0.01982046 </v>
   <v>       0.00813135       0.02257834       0.01355113 </v>
   <v>      -0.01483898      -0.01326255      -0.00178264 </v>
   <v>       0.00712897       0.02108998      -0.00260981 </v>
   <v>       0.01139431       0.00638745       0.01565027 </v>
   <v>       0.01830976       0.02149144       0.02079957 </v>
   <v>       0.00271793      -0.00477519       0.02077663 </v>
   <v>       0.01162833      -0.01651305      -0.01335030 </v>
   <v>       0.02029770      -0.01166442      -0.00687965 </v>
   <v>      -0.00749979      -0.02849208       0.01214970 </v>
   <v>      -0.00976809      -0.02052794      -0.01494317 </v>
   <v>       0.00525851       0.01197794      -0.01043829 </v>
   <v>      -0.00366566       0.00878619      -0.00033737 </v>
   <v>      -0.00007765      -0.01946152      -0.01092470 </v>
   <v>       0.00845654       0.00562661       0.01608812 </v>
   <v>      -0.00566956      -0.02328493       0.01434172 </v>
   <v>       0.01262121       0.00257851      -0.01674217 </v>
   <v>       0.01345265      -0.00511990      -0.02005337 </v>
   <v>      -0.00539000      -0.00320368      -0.00645111 </v>
   <v>      -0.01362725       0.00610539      -0.00485516 </v>
   <v>      -0.00834845      -0.00312781      -0.02746703 </v>
   <v>       0.00496312      -0.00509971       0.02137038 </v>
   <v>      -0.01907077       0.00067727       0.00100998 </v>
   <v>       0.01179384       0.00029770      -0.01743647 </v>
   <v>       0.00646784       0.00352717      -0.01893181 </v>
   <v>      -0.01622525       0.01137494       0.00983941 </v>
   <v>      -0.00231857       0.00089800      -0.00352280 </v>
   <v>       0.00902307       0.00240107      -0.01019631 </v>
   <v>       0.02445842       0.00210548      -0.00644006 </v>
   <v>      -0.01835208       0.01477084       0.00749133 </v>
   <v>      -0.00655264      -0.00024084       0.00813092 </v>
   <v>      -0.00582720      -0.01347933      -0.00584304 </v>
   <v>      -0.00618582      -0.00435538       0.01029990 </v>
   <v>      -0.01957837      -0.00190038       0.00828604 </v>
   <v>      -0.00664619      -0.00784938       0.01660858 </v>
   <v>       0.00195637       0.00284279      -0.00483388 </v>
   <v>      -0.00570349       0.01050135       0.02033171 </v>
   <v>       0.00669847       0.01136949       0.01103444 </v>
   <v>      -0.00840942       0.00967170       0.01449839 </v>
   <v>       0.00141989       0.02345413      -0.00216802 </v>
   <v>      -0.01101809       0.00845349       0.01287297 </v>
   <v>       0.00861396       0.01369791      -0.00310012 </v>
   <v>      -0.00905814       0.00173024      -0.00279568 </v>
   <v>      -0.00430593       0.00183023       0.01970974 </v>
   <v>      -0.00131677      -0.00340654       0.02124998 </v>
   <v>       0.00111962       0.02395709      -0.00606474 </v>
   <v>       0.00955628      -0.01239839      -0.00683603 </v>
   <v>      -0.02486751       0.01502643      -0.01293422 </v>
   <v>      -0.01486042       0.00380997      -0.01405334 </v>
   <v>       0.00654748      -0.00721940      -0.01085351 </v>
   <v>      -0.00565398       0.00348510      -0.00697577 </v>
   <v>       0.00818192       0.01229966       0.00962702 </v>
   <v>      -0.00864499      -0.00192627      -0.00199585 </v>
   <v>       0.01183573       0.00318535      -0.01442420 </v>
   <v>      -0.01078514      -0.01389350      -0.01492474 </v>
   <v>       0.00730140       0.00487971      -0.01339698 </v>
   <v>       0.00651293      -0.01068921       0.00245849 </v>
   <v>      -0.01542389      -0.00496994       0.00463503 </v>
   <v>      -0.00788615      -0.01829837      -0.00338136 </v>
   <v>       0.00299276       0.00345270      -0.02165771 </v>
   <v>      -0.01249489      -0.00904064      -0.00234190 </v>
   <v>      -0.00532260      -0.00416189      -0.00235144 </v>
   <v>       0.00343281      -0.00012641      -0.01315987 </v>
   <v>       0.01480944       0.00050379      -0.01176204 </v>
   <v>      -0.00436798       0.00809675       0.00086506 </v>
   <v>       0.01394387      -0.00058524       0.00484233 </v>
   <v>       0.01143216       0.00443257      -0.00383256 </v>
   <v>      -0.01015880      -0.01245230       0.00557229 </v>
   <v>      -0.00584472      -0.00261994      -0.00323507 </v>
   <v>      -0.00183429       0.01700604       0.00248676 </v>
   <v>       0.01044864      -0.00405634       0.00437029 </v>
   <v>      -0.01457629       0.00563074       0.00506591 </v>
   <v>       0.00515499      -0.02037447       0.00753939 </v>
   <v>      -0.01050058      -0.00761255       0.00603625 </v>
   <v>      -0.00335328      -0.00112208      -0.00273202 </v>
   <v>      -0.01777556      -0.00771739       0.00666071 </v>
   <v>      -0.00542598      -0.00435625       0.00023762 </v>
   <v>      -0.00222223      -0.00571872       0.00098570 </v>
   <v>       0.01101680       0.00047851      -0.00456339 </v>
   <v>      -0.00125607      -0.00905268      -0.01549986 </v>
   <v>      -0.00103710       0.00730969      -0.00827523 </v>
   <v>       0.01261115       0.01147710       0.00286850 </v>
   <v>       0.00839319       0.00039351      -0.00586376 </v>
   <v>      -0.00368357       0.00069299       0.00626661 </v>
   <v>      -0.00011078      -0.01603969      -0.02681602 </v>
   <v>      -0.00322252       0.00487012      -0.00012169 </v>
   <v>      -0.00557491       0.00452182       0.01019984 </v>
   <v>      -0.00296234      -0.02710567      -0.01971685 </v>
   <v>      -0.02003936       0.00015868       0.00005636 </v>
   <v>      -0.00502255      -0.02060612      -0.00297613 </v>
   <v>      -0.01927171      -0.00095856       0.01389776 </v>
   <v>       0.00374712       0.00760404       0.00982062 </v>
   <v>       0.00799912      -0.00828245      -0.02043349 </v>
   <v>       0.00352835      -0.00615537       0.01841450 </v>
   <v>       0.01440666       0.00752340      -0.00939597 </v>
   <v>      -0.00247109       0.00733291       0.00195142 </v>
   <v>       0.00752990       0.00899334      -0.00590589 </v>
   <v>       0.00802822       0.00153216       0.00540255 </v>
   <v>       0.00896740      -0.00145663       0.00238802 </v>
   <v>      -0.00080780       0.01623781      -0.00408719 </v>
   <v>      -0.00783292       0.00248496       0.00442830 </v>
   <v>      -0.00595314       0.00223843      -0.00328139 </v>
   <v>      -0.00549546      -0.00256771      -0.02617215 </v>
   <v>      -0.01187523      -0.00020024      -0.00009486 </v>
   <v>       0.00169890       0.00759625      -0.00500979 </v>
   <v>      -0.01268802       0.00191881       0.01008867 </v>
   <v>      -0.01927156      -0.00020322      -0.01651538 </v>
   <v>       0.00885423      -0.01070633       0.01072256 </v>
   <v>      -0.01239538      -0.02582721       0.00768682 </v>
   <v>       0.00943115       0.00681183       0.00446960 </v>
   <v>       0.00285464       0.00185775      -0.01518662 </v>
   <v>       0.00002012       0.00220160       0.00667836 </v>
   <v>       0.02067825      -0.00513446       0.00060212 </v>
   <v>       0.01621861       0.00192309       0.02580459 </v>
   <v>       0.02287675      -0.00204023       0.00208993 </v>
  </varray>
  <varray name="stress" >
   <v>       0.17019443       0.06277117       0.01623164 </v>
   <v>       0.06277099      -0.06090918      -0.07727963 </v>
   <v>       0.01623174      -0.07727937       0.10201897 </v>
  </varray>
  <energy>
   <i name="e_fr_energy">  -1121.38195057 </i>
   <i name="e_wo_entrp">  -1121.38195057 </i>
   <i name="e_0_energy">     -0.00000000 </i>
  </energy>
  <time name="totalsc"> 1038.39 1041.61</time>
 </calculation>
 <calculation>
  <scstep>
   <time name="dav">  285.59  285.63</time>
   <time name="total">  289.33  289.38</time>
   <energy>
    <i name="alphaZ">   5625.78436484 </i>
    <i name="ewald"> -61415.54765323 </i>
    <i name="hartreedc"> -16107.25680896 </i>
    <i name="XCdc">   2963.51439130 </i>
    <i name="pawpsdc"> 112922.13019316 </i>
    <i name="pawaedc">-111822.64836808 </i>
    <i name="eentropy">     -0.00000000 </i>
    <i name="bandstr">  -7070.80594173 </i>
    <i name="atom">  73783.44779670 </i>
    <i name="e_fr_energy">  -1121.38202600 </i>
    <i name="e_wo_entrp">  -1121.38202600 </i>
    <i name="e_0_energy">  -1121.38202600 </i>
   </energy>
  </scstep>
  <scstep>
   <time name="diag">   33.23   33.23</time>
   <time name="diis">   52.10   52.11</time>
   <time name="orth">   18.83   18.83</time>
   <time name="total">  107.88  107.94</time>
   <energy>
    <i name="e_fr_energy">  -1121.38335118 </i>
    <i name="e_wo_entrp">  -1121.38335118 </i>
    <i name="e_0_energy">  -1121.38335118 </i>
   </energy>
  </scstep>
  <scstep>
   <time name="diag">   33.21   33.21</time>
   <time name="diis">   48.38   48.39</time>
   <time name="orth">   18.82   18.82</time>
   <time name="total">  104.15  104.22</time>
   <energy>
    <i name="e_fr_energy">  -1121.38340626 </i>
    <i name="e_wo_entrp">  -1121.38340626 </i>
    <i name="e_0_energy">  -1121.38340626 </i>
   </energy>
  </scstep>
  <scstep>
   <time name="diag">   33.23   33.23</time>
   <time name="diis">   34.00   34.03</time>
   <time name="orth">   18.84   18.84</time>
   <time name="total">   89.82   89.89</time>
   <energy>
    <i name="e_fr_energy">  -1121.38332838 </i>
    <i name="e_wo_entrp">  -1121.38332838 </i>
    <i name="e_0_energy">  -1121.38332838 </i>
   </energy>
  </scstep>
  <scstep>
   <time name="diag">   33.21   33.22</time>
   <time name="diis">   32.46   32.46</time>
   <time name="orth">   18.85   18.85</time>
   <time name="total">   88.24   88.30</time>
   <energy>
    <i name="e_fr_energy">  -1121.38330410 </i>
    <i name="e_wo_entrp">  -1121.38330410 </i>
    <i name="e_0_energy">  -1121.38330410 </i>
   </energy>
  </scstep>
  <scstep>
   <time name="diag">   33.22   33.23</time>
   <time name="diis">   31.73   31.74</time>
   <time name="orth">   18.79   18.79</time>
   <time name="total">   87.50   87.58</time>
   <energy>
    <i name="e_fr_energy">  -1121.38330515 </i>
    <i name="e_wo_entrp">  -1121.38330515 </i>
    <i name="e_0_energy">  -1121.38330515 </i>
   </energy>
  </scstep>
  <scstep>
   <time name="diag">   33.24   33.24</time>
   <time name="diis">   30.86   30.88</time>
   <time name="orth">   18.82   18.82</time>
   <time name="total">   86.68   86.72</time>
   <energy>
    <i name="e_fr_energy">  -1121.38330534 </i>
    <i name="e_wo_entrp">  -1121.38330534 </i>
    <i name="e_0_energy">  -1121.38330534 </i>
   </energy>
  </scstep>
  <scstep>
   <time name="diag">   33.26   33.28</time>
   <time name="diis">   29.88   29.90</time>
   <time name="orth">   18.79   18.80</time>
   <time name="total">   82.51   82.66</time>
   <energy>
    <i name="alphaZ">   5625.78436484 </i>
    <i name="ewald"> -61415.54765323 </i>
    <i name="hartreedc"> -16108.39892197 </i>
    <i name="XCdc">   2963.59183167 </i>
    <i name="pawpsdc"> 112895.71961088 </i>
    <i name="pawaedc">-111796.22685217 </i>
    <i name="eentropy">     -0.00000000 </i>
    <i name="bandstr">  -7069.75348209 </i>
    <i name="atom">  73783.44779670 </i>
    <i name="e_fr_energy">  -1121.38330536 </i>
    <i name="e_wo_entrp">  -1121.38330536 </i>
    <i name="e_0_energy">  -1121.38330536 </i>
   </energy>
  </scstep>
  <structure>
   <crystal>
    <varray name="basis" >
     <v>      11.20781927       0.00448790       0.00202200 </v>
     <v>       0.00446973      11.21653484      -0.00814842 </v>
     <v>       0.00289849      -0.01147478      15.95705259 </v>
    </varray>
    <i name="volume">   2006.00584843 </i>
    <varray name="rec_basis" >
     <v>       0.08922344      -0.00003557      -0.00001623 </v>
     <v>      -0.00003571       0.08915415       0.00006412 </v>
     <v>      -0.00001132       0.00004553       0.06266825 </v>
    </varray>
   </crystal>
   <varray name="positions" >
    <v>       0.00323516       0.24824824       0.11949215 </v>
    <v>       0.00059681       0.25010036       0.62287610 </v>
    <v>       0.00236725       0.74707951       0.12144922 </v>
    <v>       0.99869632       0.75175062       0.62369237 </v>
    <v>       0.49465364       0.24069923       0.11931957 </v>
    <v>       0.49914346       0.25176096       0.62402667 </v>
    <v>       0.50119680       0.75765177       0.11261087 </v>
    <v>       0.50011170       0.75051491       0.62566357 </v>
    <v>       0.00072785       0.24685764       0.37873061 </v>
    <v>       0.00353329       0.24947244       0.87850086 </v>
    <v>       0.99989882       0.75627556       0.38743195 </v>
    <v>       0.99871579       0.74904737       0.87284074 </v>
    <v>       0.49917369       0.23814738       0.37769589 </v>
    <v>       0.49711607       0.25103557       0.87849612 </v>
    <v>       0.49794006       0.75534749       0.38344355 </v>
    <v>       0.50024667       0.74988103       0.87452524 </v>
    <v>       0.24784853       0.01130651       0.11700730 </v>
    <v>       0.24778379       0.00160357       0.62344306 </v>
    <v>       0.24449493       0.48778372       0.11873135 </v>
    <v>       0.24867456       0.50009294       0.62591269 </v>
    <v>       0.75058199       0.00652027       0.12232160 </v>
    <v>       0.75206102       0.00158592       0.62464564 </v>
    <v>       0.75806585       0.48756413       0.11760449 </v>
    <v>       0.75245526       0.49992447       0.62252922 </v>
    <v>       0.24340660       0.00579097       0.38152058 </v>
    <v>       0.24813742       0.00362063       0.87519690 </v>
    <v>       0.24071696       0.49971125       0.38248084 </v>
    <v>       0.25026244       0.49710068       0.87842805 </v>
    <v>       0.75309098       0.00551419       0.38173212 </v>
    <v>       0.74958625       0.99942095       0.87806040 </v>
    <v>       0.75574884       0.49875892       0.37662476 </v>
    <v>       0.75199227       0.49884639       0.87410313 </v>
    <v>       0.24739993       0.24679156       0.25034241 </v>
    <v>       0.99978906       0.49999305       0.74802993 </v>
    <v>       0.75120572       0.74937727       0.50151775 </v>
    <v>       0.00195598       0.50264975       0.99936771 </v>
    <v>       0.74973101       0.75031788       0.74815761 </v>
    <v>       0.49806506       0.99867278       0.99914971 </v>
    <v>       0.00045453       0.99665725       0.00172391 </v>
    <v>       0.24778855       0.75005149       0.50312590 </v>
    <v>       0.99910164       0.99993847       0.74941005 </v>
    <v>       0.00111310       0.49612219       0.24806739 </v>
    <v>       0.49939580       0.50221826       0.49870428 </v>
    <v>       0.25019861       0.25124197       0.75221929 </v>
    <v>       0.74909472       0.25108115       0.75124741 </v>
    <v>       0.75116600       0.24525959       0.25034545 </v>
    <v>       0.50058747       0.50061617       0.75000556 </v>
    <v>       0.24954389       0.75109037       0.74880897 </v>
    <v>       0.00148927       0.00336275       0.25048511 </v>
    <v>       0.49920113       0.50531559       0.00400075 </v>
    <v>       0.49580582       0.99195963       0.24662322 </v>
    <v>       0.49953364       0.00057957       0.74995513 </v>
    <v>       0.75187358       0.25186755       0.49922255 </v>
    <v>       0.49994788       0.99851948       0.50148223 </v>
    <v>       0.24761273       0.25145752       0.49986393 </v>
    <v>       0.74957255       0.24960151       0.99936994 </v>
    <v>       0.23955879       0.76604567       0.26082922 </v>
    <v>       0.99932288       0.00165742       0.50168797 </v>
    <v>       0.24725202       0.75068618       0.98872032 </v>
    <v>       0.75122401       0.74912430       0.99032399 </v>
    <v>       0.99948294       0.50189585       0.50107452 </v>
    <v>       0.50309614       0.47085778       0.25072047 </v>
    <v>       0.24969940       0.24985580       0.99866988 </v>
    <v>       0.76828588       0.75948972       0.26045392 </v>
    <v>       0.10634884       0.14506117       0.25061777 </v>
    <v>       0.10917959       0.14112182       0.75178407 </v>
    <v>       0.39366565       0.83307144       0.24193149 </v>
    <v>       0.99813634       0.48616030       0.12519979 </v>
    <v>       0.61194649       0.12999183       0.24442658 </v>
    <v>       0.60754816       0.14196772       0.74629849 </v>
    <v>       0.39350521       0.34582513       0.25215768 </v>
    <v>       0.39317463       0.36091936       0.75378195 </v>
    <v>       0.64138908       0.39409532       0.74790995 </v>
    <v>       0.63410631       0.11347708       0.50187631 </v>
    <v>       0.89408152       0.36073776       0.25757212 </v>
    <v>       0.88973275       0.35911155       0.75797095 </v>
    <v>       0.89850070       0.85993782       0.24749289 </v>
    <v>       0.89011342       0.85822151       0.74970559 </v>
    <v>       0.35719115       0.09509983       0.25282553 </v>
    <v>       0.35873588       0.10912708       0.74982120 </v>
    <v>       0.13609988       0.11773388       0.50459316 </v>
    <v>       0.24994554       0.24203942       0.37483171 </v>
    <v>       0.85847928       0.10829058       0.25665043 </v>
    <v>       0.85729670       0.11061693       0.75709232 </v>
    <v>       0.84949361       0.61498756       0.23233243 </v>
    <v>       0.14704915       0.63682445       0.22309487 </v>
    <v>       0.87685566       0.12861674       0.99132968 </v>
    <v>       0.14113825       0.39202057       0.75244084 </v>
    <v>       0.14444659       0.89829852       0.23829291 </v>
    <v>       0.37431260       0.38435721       0.00571652 </v>
    <v>       0.65029162       0.39180313       0.24608366 </v>
    <v>       0.14358356       0.39153469       0.25421408 </v>
    <v>       0.64013419       0.85546638       0.22455685 </v>
    <v>       0.64115957       0.89231115       0.74924892 </v>
    <v>       0.38122539       0.12943901       0.99803749 </v>
    <v>       0.36567689       0.38842669       0.49214288 </v>
    <v>       0.36753789       0.87812269       0.00472408 </v>
    <v>       0.36372910       0.88721720       0.49384802 </v>
    <v>       0.86890980       0.37990988       0.99324286 </v>
    <v>       0.86299333       0.38602091       0.49140834 </v>
    <v>       0.86760101       0.87625076       0.01283175 </v>
    <v>       0.86180086       0.88429268       0.49602386 </v>
    <v>       0.60732531       0.64223820       0.74792801 </v>
    <v>       0.61792030       0.37260881       0.01497976 </v>
    <v>       0.13262751       0.62162266       0.01205129 </v>
    <v>       0.13726332       0.61568038       0.50769404 </v>
    <v>       0.62883096       0.12104423       0.00483666 </v>
    <v>       0.10907065       0.64145128       0.74268958 </v>
    <v>       0.63395231       0.62328196       0.01713015 </v>
    <v>       0.63627408       0.61149756       0.50178951 </v>
    <v>       0.39154148       0.85917893       0.75476446 </v>
    <v>       0.11597890       0.36672931       0.49320629 </v>
    <v>       0.12240626       0.86818150       0.01597692 </v>
    <v>       0.11589031       0.86448891       0.50514073 </v>
    <v>       0.14070100       0.89198136       0.74509859 </v>
    <v>       0.61070904       0.36548020       0.49446414 </v>
    <v>       0.62242586       0.87046997       0.00429854 </v>
    <v>       0.61225060       0.86246602       0.50269910 </v>
    <v>       0.38727187       0.13476820       0.49737594 </v>
    <v>       0.37849278       0.63467750       0.00204515 </v>
    <v>       0.38783891       0.63827495       0.50049196 </v>
    <v>       0.25440399       0.25741625       0.62482481 </v>
    <v>       0.24940979       0.24654528       0.12727705 </v>
    <v>       0.35953377       0.60909360       0.75471315 </v>
    <v>       0.88504147       0.63786803       0.50200775 </v>
    <v>       0.99285878       0.01525127       0.12562661 </v>
    <v>       0.50994217       0.50474686       0.88037959 </v>
    <v>       0.99473941       0.48876434       0.62629925 </v>
    <v>       0.49264588       0.00099016       0.12478274 </v>
    <v>       0.49421284       0.99642509       0.62475532 </v>
    <v>       0.48254356       0.53426191       0.14318652 </v>
    <v>       0.49518615       0.49766723       0.62410586 </v>
    <v>       0.00865507       0.99683860       0.37362449 </v>
    <v>       0.00211739       0.98532442       0.87694808 </v>
    <v>       0.00391107       0.52701302       0.36688249 </v>
    <v>       0.00351398       0.51353469       0.87588589 </v>
    <v>       0.51150907       0.98874533       0.36979796 </v>
    <v>       0.50349531       0.99922103       0.87539274 </v>
    <v>       0.85825364       0.60900049       0.74812105 </v>
    <v>       0.24318439       0.74144373       0.37660246 </v>
    <v>       0.87932904       0.63103761       0.00994951 </v>
    <v>       0.25312399       0.25240993       0.87382158 </v>
    <v>       0.88242477       0.13701497       0.49625421 </v>
    <v>       0.23720699       0.75229651       0.87180048 </v>
    <v>       0.74008421       0.24574931       0.37353739 </v>
    <v>       0.73264631       0.25424599       0.87606761 </v>
    <v>       0.73959160       0.74170694       0.37488833 </v>
    <v>       0.74915531       0.74642587       0.87245390 </v>
    <v>       0.11987762       0.37187327       0.99777653 </v>
    <v>       0.99107827       0.00481511       0.62763787 </v>
    <v>       0.12749998       0.11834331       0.99699793 </v>
    <v>       0.26171398       0.75370663       0.62604497 </v>
    <v>       0.76483413       0.24654747       0.12576162 </v>
    <v>       0.75378893       0.25485656       0.62485557 </v>
    <v>       0.49738718       0.52915136       0.36230039 </v>
    <v>       0.74940150       0.75166703       0.62502337 </v>
   </varray>
  </structure>
  <varray name="forces" >
   <v>      -0.00034383      -0.00521547       0.00681651 </v>
   <v>       0.00223196       0.00045843       0.00162394 </v>
   <v>       0.00349699      -0.00047259       0.00437077 </v>
   <v>      -0.00712549      -0.00067027       0.01395799 </v>
   <v>       0.00323986       0.00310233       0.00694137 </v>
   <v>      -0.00134953       0.00912129       0.00288668 </v>
   <v>      -0.00402147       0.00508684      -0.00016406 </v>
   <v>      -0.00611909      -0.00056694       0.00506277 </v>
   <v>       0.00392078      -0.00200725      -0.00574189 </v>
   <v>      -0.00028960      -0.00509844      -0.00992738 </v>
   <v>       0.00137371       0.00624358       0.00151743 </v>
   <v>      -0.00367471       0.00276455       0.00314755 </v>
   <v>       0.00106280       0.01117323      -0.01072541 </v>
   <v>      -0.00428986      -0.00396667       0.00101046 </v>
   <v>       0.00097874       0.00356634       0.00005334 </v>
   <v>       0.00420170       0.00179882      -0.00332198 </v>
   <v>      -0.00498660       0.00222734       0.00431722 </v>
   <v>       0.00191992       0.00310660       0.00147322 </v>
   <v>       0.01195691      -0.00990554       0.00238760 </v>
   <v>       0.00090568       0.00179186       0.00420627 </v>
   <v>       0.00031603      -0.00010676       0.00813082 </v>
   <v>       0.00240500      -0.00424515       0.00890418 </v>
   <v>       0.00429061      -0.00596324      -0.00511109 </v>
   <v>      -0.00409188       0.00037273       0.00092327 </v>
   <v>       0.00115519      -0.00494834      -0.00021699 </v>
   <v>      -0.00322218      -0.00109064       0.00195506 </v>
   <v>       0.00257157      -0.00714841       0.00514153 </v>
   <v>       0.00142070      -0.00160377      -0.00514261 </v>
   <v>      -0.00478339       0.00441274      -0.01145113 </v>
   <v>       0.00525322       0.00678825      -0.00344975 </v>
   <v>      -0.00219282       0.00136591      -0.00768948 </v>
   <v>       0.00484139      -0.00177711      -0.00708444 </v>
   <v>       0.00042864      -0.00579613      -0.00361241 </v>
   <v>       0.00929599      -0.01073427      -0.00398309 </v>
   <v>       0.00415528       0.02683639       0.00437087 </v>
   <v>      -0.00052978      -0.00360139      -0.00295309 </v>
   <v>       0.01325844       0.02467541       0.00238649 </v>
   <v>       0.01696820       0.00887198      -0.03372921 </v>
   <v>       0.00125753       0.00466222      -0.03392636 </v>
   <v>       0.00319462      -0.01083744       0.02164332 </v>
   <v>      -0.02586399      -0.00635300       0.00581055 </v>
   <v>      -0.00613103      -0.00304871      -0.01208817 </v>
   <v>      -0.01978058      -0.01898988       0.00012845 </v>
   <v>       0.02262389       0.00839823       0.00058969 </v>
   <v>       0.00168061      -0.02673413       0.00354550 </v>
   <v>       0.00301616      -0.00056923      -0.00819032 </v>
   <v>      -0.02530272      -0.04211360      -0.00616338 </v>
   <v>       0.00379807      -0.00251090      -0.01008956 </v>
   <v>      -0.00474458       0.01174166       0.00376147 </v>
   <v>       0.00552603      -0.01465526      -0.00912820 </v>
   <v>       0.00588453       0.02011516       0.00021384 </v>
   <v>       0.01037775       0.01356312       0.03044003 </v>
   <v>      -0.01408183      -0.00652897       0.01405396 </v>
   <v>       0.00721436       0.00329036       0.01350177 </v>
   <v>       0.01085983       0.02084640       0.01133803 </v>
   <v>       0.00316087      -0.00781921      -0.00689741 </v>
   <v>      -0.01029706       0.00474158       0.01349632 </v>
   <v>      -0.00041950      -0.00129600      -0.00566907 </v>
   <v>       0.00785695       0.00530176      -0.01039066 </v>
   <v>      -0.00638374       0.00137876      -0.01065402 </v>
   <v>       0.00521785      -0.00404271       0.00381117 </v>
   <v>       0.00917687       0.00142138       0.02200733 </v>
   <v>       0.00702104      -0.00560908       0.00147716 </v>
   <v>      -0.00296828      -0.00105000       0.01485180 </v>
   <v>       0.01037446      -0.00579000      -0.01685929 </v>
   <v>       0.00214178      -0.00221041      -0.01824717 </v>
   <v>      -0.01710154       0.00925606       0.00928691 </v>
   <v>      -0.00014490       0.00711567       0.00983865 </v>
[...]
       <r>   -16.2459     0.0000    32.0000 </r>
       <r>   -16.0936     0.0000    32.0000 </r>
       <r>   -15.9414     0.0000    32.0000 </r>
       <r>   -15.7891     0.0000    32.0000 </r>
       <r>   -15.6368     0.0000    32.0000 </r>
       <r>   -15.4846     0.0000    32.0000 </r>
       <r>   -15.3323     0.0000    32.0000 </r>
       <r>   -15.1800     0.0100    32.0015 </r>
       <r>   -15.0278    15.7591    34.4011 </r>
       <r>   -14.8755    52.0852    42.3319 </r>
       <r>   -14.7232    52.3783    50.3073 </r>
       <r>   -14.5710    30.3139    54.9231 </r>
       <r>   -14.4187    30.5808    59.5795 </r>
       <r>   -14.2665    36.9690    65.2086 </r>
       <r>   -14.1142    95.6128    79.7672 </r>
       <r>   -13.9619   132.8458    99.9951 </r>
       <r>   -13.8097   106.8770   116.2688 </r>
       <r>   -13.6574    46.2028   123.3039 </r>
       <r>   -13.5051     4.5715   124.0000 </r>
       <r>   -13.3529     0.0001   124.0000 </r>
       <r>   -13.2006     0.0000   124.0000 </r>
       <r>   -13.0483     0.0000   124.0000 </r>
       <r>   -12.8961     0.0000   124.0000 </r>
       <r>   -12.7438     0.1184   124.0180 </r>
       <r>   -12.5915    32.0889   128.9041 </r>
       <r>   -12.4393   138.5386   149.9988 </r>
       <r>   -12.2870   151.9554   173.1364 </r>
       <r>   -12.1347   128.7522   192.7410 </r>
       <r>   -11.9825   110.9498   209.6348 </r>
       <r>   -11.8302    51.8213   217.5255 </r>
       <r>   -11.6779    15.2092   219.8413 </r>
       <r>   -11.5257     1.0422   220.0000 </r>
       <r>   -11.3734     0.0000   220.0000 </r>
       <r>   -11.2211     0.0000   220.0000 </r>
       <r>   -11.0689     0.0000   220.0000 </r>
       <r>   -10.9166     0.0000   220.0000 </r>
       <r>   -10.7643     0.0000   220.0000 </r>
       <r>   -10.6121     0.0000   220.0000 </r>
       <r>   -10.4598     0.0000   220.0000 </r>
       <r>   -10.3075     0.0000   220.0000 </r>
       <r>   -10.1553     0.0000   220.0000 </r>
       <r>   -10.0030     0.0000   220.0000 </r>
       <r>    -9.8507     0.0000   220.0000 </r>
       <r>    -9.6985     0.0000   220.0000 </r>
       <r>    -9.5462     0.0000   220.0000 </r>
       <r>    -9.3939     0.0000   220.0000 </r>
       <r>    -9.2417     0.0000   220.0000 </r>
       <r>    -9.0894     0.0000   220.0000 </r>
       <r>    -8.9371     0.0000   220.0000 </r>
       <r>    -8.7849     0.0000   220.0000 </r>
       <r>    -8.6326     0.0000   220.0000 </r>
       <r>    -8.4803     0.0000   220.0000 </r>
       <r>    -8.3281     0.0000   220.0000 </r>
       <r>    -8.1758     0.0000   220.0000 </r>
       <r>    -8.0236     0.0000   220.0000 </r>
       <r>    -7.8713     0.0000   220.0000 </r>
       <r>    -7.7190     0.0000   220.0000 </r>
       <r>    -7.5668     0.0000   220.0000 </r>
       <r>    -7.4145     0.0000   220.0000 </r>
       <r>    -7.2622     0.0000   220.0000 </r>
       <r>    -7.1100     0.0000   220.0000 </r>
       <r>    -6.9577     0.0000   220.0000 </r>
       <r>    -6.8054     0.0000   220.0000 </r>
       <r>    -6.6532     0.0000   220.0000 </r>
       <r>    -6.5009     0.0000   220.0000 </r>
       <r>    -6.3486     0.0000   220.0000 </r>
       <r>    -6.1964     0.0000   220.0000 </r>
       <r>    -6.0441     0.0000   220.0000 </r>
       <r>    -5.8918     0.0000   220.0000 </r>
       <r>    -5.7396     0.0000   220.0000 </r>
       <r>    -5.5873     0.0000   220.0000 </r>
       <r>    -5.4350     0.0000   220.0000 </r>
       <r>    -5.2828     0.0000   220.0000 </r>
       <r>    -5.1305     0.0000   220.0000 </r>
       <r>    -4.9782     0.0000   220.0000 </r>
       <r>    -4.8260     0.0000   220.0000 </r>
       <r>    -4.6737     0.0000   220.0000 </r>
       <r>    -4.5214     0.0000   220.0000 </r>
       <r>    -4.3692     0.0000   220.0000 </r>
       <r>    -4.2169     0.0000   220.0000 </r>
       <r>    -4.0646     0.0000   220.0000 </r>
       <r>    -3.9124     0.0000   220.0000 </r>
       <r>    -3.7601     0.0000   220.0000 </r>
       <r>    -3.6078     0.0000   220.0000 </r>
       <r>    -3.4556     0.0000   220.0000 </r>
       <r>    -3.3033     0.0000   220.0000 </r>
       <r>    -3.1510     0.0000   220.0000 </r>
       <r>    -2.9988     0.0000   220.0000 </r>
       <r>    -2.8465     0.0000   220.0000 </r>
       <r>    -2.6942     0.0000   220.0000 </r>
       <r>    -2.5420     0.0000   220.0000 </r>
       <r>    -2.3897     0.5954   220.0907 </r>
       <r>    -2.2374    13.0756   222.0816 </r>
       <r>    -2.0852    21.1087   225.2958 </r>
       <r>    -1.9329    29.3088   229.7585 </r>
       <r>    -1.7807    39.3341   235.7477 </r>
       <r>    -1.6284    51.4003   243.5742 </r>
       <r>    -1.4761    56.0002   252.1012 </r>
       <r>    -1.3239    58.0037   260.9332 </r>
       <r>    -1.1716    71.5868   271.8334 </r>
       <r>    -1.0193    73.5271   283.0290 </r>
       <r>    -0.8671    73.1024   294.1600 </r>
       <r>    -0.7148    82.5563   306.7305 </r>
       <r>    -0.5625   107.1841   323.0510 </r>
       <r>    -0.4103   107.8669   339.4755 </r>
       <r>    -0.2580    74.0076   350.7443 </r>
       <r>    -0.1057    50.9590   358.5036 </r>
       <r>     0.0465    51.0301   366.2738 </r>
       <r>     0.1988    40.9960   372.5161 </r>
       <r>     0.3511    54.3887   380.7976 </r>
       <r>     0.5033    57.3694   389.5330 </r>
       <r>     0.6556    57.1159   398.2298 </r>
       <r>     0.8079    44.7886   405.0496 </r>
       <r>     0.9601    54.2993   413.3175 </r>
       <r>     1.1124    56.8118   421.9680 </r>
       <r>     1.2647    87.5343   435.2965 </r>
       <r>     1.4169    87.3884   448.6028 </r>
       <r>     1.5692    97.0479   463.3799 </r>
       <r>     1.7215    72.8706   474.4756 </r>
       <r>     1.8737    64.5465   484.3038 </r>
       <r>     2.0260    38.1523   490.1131 </r>
       <r>     2.1783    30.3969   494.7415 </r>
       <r>     2.3305     8.0492   495.9671 </r>
       <r>     2.4828     0.2160   496.0000 </r>
       <r>     2.6351     0.0000   496.0000 </r>
       <r>     2.7873     0.0000   496.0000 </r>
       <r>     2.9396     0.0000   496.0000 </r>
       <r>     3.0919     0.0000   496.0000 </r>
       <r>     3.2441     0.0000   496.0000 </r>
       <r>     3.3964     0.0000   496.0000 </r>
       <r>     3.5487     0.0000   496.0000 </r>
       <r>     3.7009     0.0000   496.0000 </r>
       <r>     3.8532     0.0000   496.0000 </r>
       <r>     4.0055     0.0000   496.0000 </r>
       <r>     4.1577     0.0000   496.0000 </r>
       <r>     4.3100     0.0000   496.0000 </r>
       <r>     4.4623     3.3835   496.5152 </r>
       <r>     4.6145    27.5595   500.7116 </r>
       <r>     4.7668    45.6311   507.6596 </r>
       <r>     4.9190    34.5845   512.9257 </r>
       <r>     5.0713    41.8380   519.2962 </r>
       <r>     5.2236    53.2145   527.3989 </r>
       <r>     5.3758    67.3964   537.6611 </r>
       <r>     5.5281    64.8776   547.5397 </r>
       <r>     5.6804    70.5396   558.2805 </r>
       <r>     5.8326    73.3013   569.4418 </r>
       <r>     5.9849    95.0382   583.9128 </r>
       <r>     6.1372    79.0998   595.9571 </r>
       <r>     6.2894    61.1578   605.2693 </r>
       <r>     6.4417    39.4121   611.2704 </r>
       <r>     6.5940    19.1918   614.1927 </r>
       <r>     6.7462    19.3473   617.1386 </r>
       <r>     6.8985    23.1469   620.6631 </r>
       <r>     7.0508    17.6046   623.3437 </r>
       <r>     7.2030    21.2337   626.5768 </r>
       <r>     7.3553    16.9374   629.1558 </r>
       <r>     7.5076    12.6181   631.0771 </r>
       <r>     7.6598    15.2043   633.3922 </r>
       <r>     7.8121    17.8014   636.1028 </r>
       <r>     7.9644    21.0038   639.3009 </r>
       <r>     8.1166    24.2798   642.9979 </r>
       <r>     8.2689    25.5430   646.8873 </r>
       <r>     8.4212    26.6673   650.9478 </r>
       <r>     8.5734    22.5544   654.3820 </r>
       <r>     8.7257    21.9220   657.7200 </r>
       <r>     8.8780    31.3595   662.4950 </r>
       <r>     9.0302    37.0661   668.1389 </r>
       <r>     9.1825    39.6176   674.1713 </r>
       <r>     9.3348    33.8478   679.3252 </r>
       <r>     9.4870    40.5749   685.5033 </r>
       <r>     9.6393    47.9578   692.8057 </r>
       <r>     9.7916    48.4421   700.1817 </r>
       <r>     9.9438    67.1002   710.3988 </r>
       <r>    10.0961    68.8801   720.8869 </r>
       <r>    10.2484    66.2203   730.9700 </r>
       <r>    10.4006    55.9779   739.4935 </r>
       <r>    10.5529    56.0691   748.0309 </r>
       <r>    10.7052    56.4301   756.6233 </r>
       <r>    10.8574    52.8975   764.6778 </r>
       <r>    11.0097    21.8003   767.9973 </r>
       <r>    11.1619     0.0180   768.0000 </r>
       <r>    11.3142     0.0000   768.0000 </r>
       <r>    11.4665     0.0000   768.0000 </r>
       <r>    11.6187     0.0000   768.0000 </r>
       <r>    11.7710     0.0000   768.0000 </r>
       <r>    11.9233     0.0000   768.0000 </r>
       <r>    12.0755     0.0000   768.0000 </r>
       <r>    12.2278     0.0000   768.0000 </r>
       <r>    12.3801     0.0000   768.0000 </r>
       <r>    12.5323     0.0000   768.0000 </r>
       <r>    12.6846     0.0000   768.0000 </r>
       <r>    12.8369     0.0000   768.0000 </r>
       <r>    12.9891     0.0000   768.0000 </r>
      </set>
     </set>
    </array>
   </total>
  </dos>
 </calculation>
 <structure name="finalpos" >
  <crystal>
   <varray name="basis" >
    <v>      11.20821042       0.00464425       0.00204335 </v>
    <v>       0.00462654      11.21615643      -0.00844833 </v>
    <v>       0.00292898      -0.01190101      15.95706821 </v>
   </varray>
   <i name="volume">   2006.01003871 </i>
   <varray name="rec_basis" >
    <v>       0.08922033      -0.00003681      -0.00001640 </v>
    <v>      -0.00003696       0.08915717       0.00006650 </v>
    <v>      -0.00001144       0.00004721       0.06266819 </v>
   </varray>
  </crystal>
  <varray name="positions" >
   <v>       0.00323527       0.24820501       0.11952052 </v>
   <v>       0.00061257       0.25009877       0.62288394 </v>
   <v>       0.00238930       0.74708062       0.12148352 </v>
   <v>       0.99865282       0.75173223       0.62374655 </v>
   <v>       0.49466106       0.24073514       0.11935198 </v>
   <v>       0.49913489       0.25180769       0.62402639 </v>
   <v>       0.50117534       0.75769447       0.11263089 </v>
   <v>       0.50008316       0.75050394       0.62568629 </v>
   <v>       0.00074773       0.24685049       0.37870174 </v>
   <v>       0.00353639       0.24945687       0.87846171 </v>
   <v>       0.99991425       0.75630725       0.38741781 </v>
   <v>       0.99870065       0.74903395       0.87285405 </v>
   <v>       0.49917834       0.23820114       0.37764034 </v>
   <v>       0.49709137       0.25102831       0.87851560 </v>
   <v>       0.49793413       0.75538510       0.38342143 </v>
   <v>       0.50026130       0.74986871       0.87450737 </v>
   <v>       0.24781615       0.01130530       0.11703145 </v>
   <v>       0.24778863       0.00161783       0.62344450 </v>
   <v>       0.24456137       0.48773032       0.11875594 </v>
   <v>       0.24867482       0.50012555       0.62593273 </v>
   <v>       0.75059041       0.00649929       0.12236291 </v>
   <v>       0.75207405       0.00154636       0.62466869 </v>
   <v>       0.75807399       0.48753324       0.11758255 </v>
   <v>       0.75243738       0.49994321       0.62253365 </v>
   <v>       0.24340592       0.00575502       0.38151666 </v>
   <v>       0.24811073       0.00359481       0.87519873 </v>
   <v>       0.24071277       0.49968214       0.38247274 </v>
   <v>       0.25026236       0.49711848       0.87841578 </v>
   <v>       0.75305958       0.00553571       0.38167067 </v>
   <v>       0.74961508       0.99944220       0.87806680 </v>
   <v>       0.75575220       0.49877096       0.37659451 </v>
   <v>       0.75201344       0.49885533       0.87407174 </v>
   <v>       0.24741799       0.24682731       0.25035216 </v>
   <v>       0.99980759       0.49997783       0.74801677 </v>
   <v>       0.75120484       0.74942671       0.50153865 </v>
   <v>       0.00199865       0.50262081       0.99934764 </v>
   <v>       0.74978270       0.75035718       0.74816570 </v>
   <v>       0.49810742       0.99870434       0.99911883 </v>
   <v>       0.00045792       0.99666402       0.00169422 </v>
   <v>       0.24781730       0.75002962       0.50318383 </v>
   <v>       0.99911765       0.99995067       0.74939352 </v>
   <v>       0.00111852       0.49616527       0.24807637 </v>
   <v>       0.49935549       0.50221571       0.49872813 </v>
   <v>       0.25023146       0.25123492       0.75221738 </v>
   <v>       0.74911624       0.25105110       0.75125028 </v>
   <v>       0.75120348       0.24527410       0.25035558 </v>
   <v>       0.50055754       0.50054210       0.75002918 </v>
   <v>       0.24956211       0.75107127       0.74882219 </v>
   <v>       0.00150400       0.00335868       0.25046995 </v>
   <v>       0.49926180       0.50524530       0.00397096 </v>
   <v>       0.49580438       0.99195047       0.24664480 </v>
   <v>       0.49954202       0.00057219       0.74999260 </v>
   <v>       0.75184402       0.25187762       0.49923496 </v>
   <v>       0.49996115       0.99855200       0.50151066 </v>
   <v>       0.24764617       0.25147407       0.49986979 </v>
   <v>       0.74960323       0.24959048       0.99938226 </v>
   <v>       0.23951363       0.76600499       0.26088262 </v>
   <v>       0.99935082       0.00166003       0.50164790 </v>
   <v>       0.24730904       0.75068950       0.98866424 </v>
   <v>       0.75119218       0.74912127       0.99029032 </v>
   <v>       0.99946719       0.50189808       0.50107440 </v>
   <v>       0.50310478       0.47085467       0.25072133 </v>
   <v>       0.24973273       0.24982614       0.99870821 </v>
   <v>       0.76823187       0.75948788       0.26048771 </v>
   <v>       0.10641013       0.14504403       0.25055025 </v>
   <v>       0.10920205       0.14112418       0.75171103 </v>
   <v>       0.39357144       0.83312785       0.24196877 </v>
   <v>       0.99812983       0.48618452       0.12521467 </v>
   <v>       0.61195465       0.12996723       0.24438924 </v>
   <v>       0.60762797       0.14193934       0.74625670 </v>
   <v>       0.39341830       0.34592192       0.25219064 </v>
   <v>       0.39316018       0.36095424       0.75381702 </v>
   <v>       0.64134524       0.39408337       0.74788661 </v>
   <v>       0.63407910       0.11345435       0.50190571 </v>
   <v>       0.89404018       0.36079357       0.25761100 </v>
   <v>       0.88975209       0.35914303       0.75802961 </v>
   <v>       0.89847858       0.85993393       0.24747962 </v>
   <v>       0.89006364       0.85823580       0.74977701 </v>
   <v>       0.35724960       0.09514470       0.25286356 </v>
   <v>       0.35869294       0.10914991       0.74986665 </v>
   <v>       0.13605173       0.11777340       0.50459130 </v>
   <v>       0.24989627       0.24207130       0.37481632 </v>
   <v>       0.85855967       0.10832134       0.25664386 </v>
   <v>       0.85729892       0.11061999       0.75708206 </v>
   <v>       0.84947495       0.61500276       0.23240069 </v>
   <v>       0.14701506       0.63678674       0.22317466 </v>
   <v>       0.87690228       0.12870731       0.99131962 </v>
   <v>       0.14112995       0.39200189       0.75241518 </v>
   <v>       0.14439245       0.89827913       0.23825159 </v>
   <v>       0.37426335       0.38439934       0.00567119 </v>
   <v>       0.65027082       0.39180218       0.24604244 </v>
   <v>       0.14354177       0.39157082       0.25419337 </v>
   <v>       0.64014300       0.85553609       0.22458975 </v>
   <v>       0.64112112       0.89225927       0.74922987 </v>
   <v>       0.38127459       0.12946449       0.99800739 </v>
   <v>       0.36567077       0.38840184       0.49208690 </v>
   <v>       0.36753032       0.87811100       0.00467606 </v>
   <v>       0.36375904       0.88717370       0.49384233 </v>
   <v>       0.86888478       0.37995165       0.99325958 </v>
   <v>       0.86298680       0.38598510       0.49139223 </v>
   <v>       0.86759354       0.87626659       0.01275631 </v>
   <v>       0.86175901       0.88425456       0.49600274 </v>
   <v>       0.60732286       0.64222720       0.74792090 </v>
   <v>       0.61790692       0.37262942       0.01494629 </v>
   <v>       0.13270727       0.62162763       0.01201153 </v>
   <v>       0.13722914       0.61571271       0.50769027 </v>
   <v>       0.62889374       0.12102787       0.00486544 </v>
   <v>       0.10911775       0.64145430       0.74267783 </v>
   <v>       0.63391759       0.62323112       0.01715516 </v>
   <v>       0.63626884       0.61150196       0.50179285 </v>
   <v>       0.39149595       0.85922502       0.75477311 </v>
   <v>       0.11597905       0.36674724       0.49322211 </v>
   <v>       0.12237726       0.86816417       0.01599663 </v>
   <v>       0.11589133       0.86442499       0.50515733 </v>
   <v>       0.14069180       0.89192289       0.74510762 </v>
   <v>       0.61070247       0.36547716       0.49445830 </v>
   <v>       0.62236371       0.87039337       0.00432985 </v>
   <v>       0.61221811       0.86243336       0.50270289 </v>
   <v>       0.38725992       0.13472144       0.49736709 </v>
   <v>       0.37853488       0.63469625       0.00202958 </v>
   <v>       0.38782898       0.63824775       0.50043954 </v>
   <v>       0.25440357       0.25743747       0.62480053 </v>
   <v>       0.24948492       0.24660492       0.12730476 </v>
   <v>       0.35955963       0.60913703       0.75470627 </v>
   <v>       0.88502808       0.63784866       0.50202354 </v>
   <v>       0.99284990       0.01517735       0.12558639 </v>
   <v>       0.50993987       0.50478412       0.88038370 </v>
   <v>       0.99469426       0.48878601       0.62631936 </v>
   <v>       0.49262035       0.00084483       0.12477731 </v>
   <v>       0.49409610       0.99642000       0.62474035 </v>
   <v>       0.48251396       0.53417100       0.14315758 </v>
   <v>       0.49510120       0.49767839       0.62414245 </v>
   <v>       0.00868102       0.99687189       0.37362941 </v>
   <v>       0.00217742       0.98528715       0.87692496 </v>
   <v>       0.00393176       0.52698428       0.36692937 </v>
   <v>       0.00358792       0.51356287       0.87587362 </v>
   <v>       0.51149419       0.98877348       0.36978185 </v>
   <v>       0.50353613       0.99925636       0.87539459 </v>
   <v>       0.85829030       0.60899663       0.74814372 </v>
   <v>       0.24322840       0.74144277       0.37658389 </v>
   <v>       0.87934319       0.63110562       0.00993310 </v>
   <v>       0.25306878       0.25241218       0.87384323 </v>
   <v>       0.88242228       0.13700329       0.49623570 </v>
   <v>       0.23718285       0.75228577       0.87175915 </v>
   <v>       0.74002276       0.24574326       0.37353428 </v>
   <v>       0.73266007       0.25429307       0.87608300 </v>
   <v>       0.73952734       0.74171406       0.37488704 </v>
   <v>       0.74904617       0.74640562       0.87243284 </v>
   <v>       0.11988562       0.37185918       0.99782119 </v>
   <v>       0.99103243       0.00469570       0.62761794 </v>
   <v>       0.12753743       0.11835776       0.99702893 </v>
   <v>       0.26174565       0.75372071       0.62603929 </v>
   <v>       0.76483845       0.24656793       0.12578521 </v>
   <v>       0.75389816       0.25485946       0.62482450 </v>
   <v>       0.49748024       0.52914489       0.36231460 </v>
   <v>       0.74950260       0.75163623       0.62503520 </v>
  </varray>
 </structure>
</modeling>
