<?xml version="1.0" encoding="ISO-8859-1"?>
<modeling>
 <generator>
  <i name="program" type="string">vasp </i>
  <i name="version" type="string">5.4.1  </i>
  <i name="subversion" type="string">05Feb16 (build Jan 25 2017 20:16:33) complex                          parallel </i>
  <i name="platform" type="string">BWXE6 </i>
  <i name="date" type="string">2019 06 25 </i>
  <i name="time" type="string">10:10:34 </i>
 </generator>
 <incar>
  <i type="string" name="SYSTEM"> STF</i>
  <i type="string" name="PREC">normal</i>
  <i type="string" name="ALGO"> Fast</i>
  <i type="int" name="ISPIN">     2</i>
  <i type="int" name="NELM">    40</i>
  <i type="int" name="NELMIN">     8</i>
  <i type="int" name="IBRION">     2</i>
  <i name="EDIFF">      0.00010000</i>
  <i name="EDIFFG">     -0.03000000</i>
  <i type="int" name="NSW">    30</i>
  <i type="int" name="ISIF">     3</i>
  <i name="ENCUT">    520.00000000</i>
  <i type="int" name="NBANDS">   768</i>
  <v name="MAGMOM">      0.60000000      0.60000000      0.60000000      0.60000000      0.60000000      0.60000000      0.60000000      0.60000000      0.60000000      0.60000000      0.60000000      0.60000000      0.60000000      0.60000000      0.60000000      0.60000000      0.60000000      0.60000000      0.60000000      0.60000000
      0.60000000      0.60000000      0.60000000      0.60000000      0.60000000      0.60000000      0.60000000      0.60000000      0.60000000      0.60000000      0.60000000      0.60000000      0.60000000      0.60000000      0.60000000      0.60000000      0.60000000      0.60000000      0.60000000      0.60000000
      0.60000000      0.60000000      0.60000000      0.60000000      0.60000000      0.60000000      0.60000000      0.60000000      0.60000000      0.60000000      0.60000000      0.60000000      0.60000000      0.60000000      0.60000000      0.60000000      5.00000000      5.00000000      5.00000000      5.00000000
      5.00000000      5.00000000      5.00000000      5.00000000      0.60000000      0.60000000      0.60000000      0.60000000      0.60000000      0.60000000      0.60000000      0.60000000      0.60000000      0.60000000      0.60000000      0.60000000      0.60000000      0.60000000      0.60000000      0.60000000
      0.60000000      0.60000000      0.60000000      0.60000000      0.60000000      0.60000000      0.60000000      0.60000000      0.60000000      0.60000000      0.60000000      0.60000000      0.60000000      0.60000000      0.60000000      0.60000000      0.60000000      0.60000000      0.60000000      0.60000000
      0.60000000      0.60000000      0.60000000      0.60000000      0.60000000      0.60000000      0.60000000      0.60000000      0.60000000      0.60000000      0.60000000      0.60000000      0.60000000      0.60000000      0.60000000      0.60000000      0.60000000      0.60000000      0.60000000      0.60000000
      0.60000000      0.60000000      0.60000000      0.60000000      0.60000000      0.60000000      0.60000000      0.60000000      0.60000000      0.60000000      0.60000000      0.60000000      0.60000000      0.60000000      0.60000000      0.60000000      0.60000000      0.60000000      0.60000000      0.60000000
      0.60000000      0.60000000      0.60000000      0.60000000      0.60000000      0.60000000      0.60000000      0.60000000      0.60000000      0.60000000      0.60000000      0.60000000      0.60000000      0.60000000      0.60000000      0.60000000</v>
  <i type="string" name="LREAL"> Auto</i>
  <i type="int" name="ISMEAR">     0</i>
  <i name="SIGMA">      0.05000000</i>
  <i type="int" name="LMAXMIX">     4</i>
  <v type="int" name="KPOINT_BSE">    -1     0     0     0</v>
  <i type="int" name="NELM">    40</i>
  <i type="logical" name="LDAU"> T  </i>
  <v type="int" name="LDAUTYPE">     2</v>
  <v type="int" name="LDAUL">     0     2     2     0</v>
  <v name="LDAUU">      0.00000000      3.00000000      5.00000000      0.00000000</v>
  <v name="LDAUJ">      0.00000000      0.00000000      0.00000000      0.00000000</v>
  <i type="int" name="LDAUPRINT">     1</i>
 </incar>
 <kpoints>
  <generation param="Monkhorst-Pack">
   <v type="int" name="divisions">       2        2        2 </v>
   <v name="usershift">      0.00000000       0.00000000       0.00000000 </v>
   <v name="genvec1">      0.50000000       0.00000000       0.00000000 </v>
   <v name="genvec2">     -0.00000000       0.50000000       0.00000000 </v>
   <v name="genvec3">     -0.00000000       0.00000000       0.50000000 </v>
   <v name="shift">      0.50000000       0.50000000       0.50000000 </v>
  </generation>
  <varray name="kpointlist" >
   <v>       0.25000000       0.25000000       0.25000000 </v>
   <v>      -0.25000000       0.25000000       0.25000000 </v>
   <v>       0.25000000      -0.25000000       0.25000000 </v>
   <v>      -0.25000000      -0.25000000       0.25000000 </v>
  </varray>
  <varray name="weights" >
   <v>       0.25000000 </v>
   <v>       0.25000000 </v>
   <v>       0.25000000 </v>
   <v>       0.25000000 </v>
  </varray>
 </kpoints>
 <parameters>
  <separator name="general" >
   <i type="string" name="SYSTEM">STF</i>
   <i type="logical" name="LCOMPAT"> F  </i>
  </separator>
  <separator name="electronic" >
   <i type="string" name="PREC">normal</i>
   <i name="ENMAX">    520.00000000</i>
   <i name="ENAUG">    605.39200000</i>
   <i name="EDIFF">      0.00010000</i>
   <i type="int" name="IALGO">    68</i>
   <i type="int" name="IWAVPR">    11</i>
   <i type="int" name="NBANDS">   768</i>
   <i name="NELECT">   1032.00000000</i>
   <i type="int" name="TURBO">     0</i>
   <i type="int" name="IRESTART">     0</i>
   <i type="int" name="NREBOOT">     0</i>
   <i type="int" name="NMIN">     0</i>
   <i name="EREF">      0.00000000</i>
   <separator name="electronic smearing" >
    <i type="int" name="ISMEAR">     0</i>
    <i name="SIGMA">      0.05000000</i>
    <i name="KSPACING">      0.50000000</i>
    <i type="logical" name="KGAMMA"> T  </i>
   </separator>
   <separator name="electronic projectors" >
    <i type="logical" name="LREAL"> T  </i>
    <v name="ROPT">     -0.00050000     -0.00050000     -0.00050000     -0.00050000</v>
    <i type="int" name="LMAXPAW">  -100</i>
    <i type="int" name="LMAXMIX">     4</i>
    <i type="logical" name="NLSPLINE"> F  </i>
   </separator>
   <separator name="electronic startup" >
    <i type="int" name="ISTART">     1</i>
    <i type="int" name="ICHARG">     0</i>
    <i type="int" name="INIWAV">     1</i>
   </separator>
   <separator name="electronic spin" >
    <i type="int" name="ISPIN">     2</i>
    <i type="logical" name="LNONCOLLINEAR"> F  </i>
    <v name="MAGMOM">      0.60000000      0.60000000      0.60000000      0.60000000      0.60000000      0.60000000      0.60000000      0.60000000      0.60000000      0.60000000      0.60000000      0.60000000      0.60000000      0.60000000      0.60000000      0.60000000      0.60000000      0.60000000      0.60000000      0.60000000
      0.60000000      0.60000000      0.60000000      0.60000000      0.60000000      0.60000000      0.60000000      0.60000000      0.60000000      0.60000000      0.60000000      0.60000000      0.60000000      0.60000000      0.60000000      0.60000000      0.60000000      0.60000000      0.60000000      0.60000000
      0.60000000      0.60000000      0.60000000      0.60000000      0.60000000      0.60000000      0.60000000      0.60000000      0.60000000      0.60000000      0.60000000      0.60000000      0.60000000      0.60000000      0.60000000      0.60000000      5.00000000      5.00000000      5.00000000      5.00000000
      5.00000000      5.00000000      5.00000000      5.00000000      0.60000000      0.60000000      0.60000000      0.60000000      0.60000000      0.60000000      0.60000000      0.60000000      0.60000000      0.60000000      0.60000000      0.60000000      0.60000000      0.60000000      0.60000000      0.60000000
      0.60000000      0.60000000      0.60000000      0.60000000      0.60000000      0.60000000      0.60000000      0.60000000      0.60000000      0.60000000      0.60000000      0.60000000      0.60000000      0.60000000      0.60000000      0.60000000      0.60000000      0.60000000      0.60000000      0.60000000
      0.60000000      0.60000000      0.60000000      0.60000000      0.60000000      0.60000000      0.60000000      0.60000000      0.60000000      0.60000000      0.60000000      0.60000000      0.60000000      0.60000000      0.60000000      0.60000000      0.60000000      0.60000000      0.60000000      0.60000000
      0.60000000      0.60000000      0.60000000      0.60000000      0.60000000      0.60000000      0.60000000      0.60000000      0.60000000      0.60000000      0.60000000      0.60000000      0.60000000      0.60000000      0.60000000      0.60000000      0.60000000      0.60000000      0.60000000      0.60000000
      0.60000000      0.60000000      0.60000000      0.60000000      0.60000000      0.60000000      0.60000000      0.60000000      0.60000000      0.60000000      0.60000000      0.60000000      0.60000000      0.60000000      0.60000000      0.60000000</v>
    <i name="NUPDOWN">     -1.00000000</i>
    <i type="logical" name="LSORBIT"> F  </i>
    <v name="SAXIS">      0.00000000      0.00000000      1.00000000</v>
    <i type="logical" name="LSPIRAL"> F  </i>
    <v name="QSPIRAL">      0.00000000      0.00000000      0.00000000</v>
    <i type="logical" name="LZEROZ"> F  </i>
   </separator>
   <separator name="electronic exchange-correlation" >
    <i type="logical" name="LASPH"> F  </i>
    <i type="logical" name="LMETAGGA"> F  </i>
   </separator>
   <separator name="electronic convergence" >
    <i type="int" name="NELM">    40</i>
    <i type="int" name="NELMDL">     0</i>
    <i type="int" name="NELMIN">     8</i>
    <i name="ENINI">    520.00000000</i>
    <separator name="electronic convergence detail" >
     <i type="logical" name="LDIAG"> T  </i>
     <i type="logical" name="LSUBROT"> F  </i>
     <i name="WEIMIN">      0.00100000</i>
     <i name="EBREAK">      0.00000003</i>
     <i name="DEPER">      0.30000000</i>
     <i type="int" name="NRMM">     4</i>
     <i name="TIME">      0.40000000</i>
    </separator>
   </separator>
   <separator name="electronic mixer" >
    <i name="AMIX">      0.40000000</i>
    <i name="BMIX">      1.00000000</i>
    <i name="AMIN">      0.10000000</i>
    <i name="AMIX_MAG">      1.60000000</i>
    <i name="BMIX_MAG">      1.00000000</i>
    <separator name="electronic mixer details" >
     <i type="int" name="IMIX">     4</i>
     <i type="logical" name="MIXFIRST"> F  </i>
     <i type="int" name="MAXMIX">   -45</i>
     <i name="WC">    100.00000000</i>
     <i type="int" name="INIMIX">     1</i>
     <i type="int" name="MIXPRE">     1</i>
     <i type="int" name="MREMOVE">     5</i>
    </separator>
   </separator>
   <separator name="electronic dipolcorrection" >
    <i type="logical" name="LDIPOL"> F  </i>
    <i type="logical" name="LMONO"> F  </i>
    <i type="int" name="IDIPOL">     0</i>
    <i name="EPSILON">      1.00000000</i>
    <v name="DIPOL">   -100.00000000   -100.00000000   -100.00000000</v>
    <i name="EFIELD">      0.00000000</i>
   </separator>
  </separator>
  <separator name="grids" >
   <i type="int" name="NGX">    64</i>
   <i type="int" name="NGY">    64</i>
   <i type="int" name="NGZ">    90</i>
   <i type="int" name="NGXF">   128</i>
   <i type="int" name="NGYF">   128</i>
   <i type="int" name="NGZF">   180</i>
   <i type="logical" name="ADDGRID"> F  </i>
  </separator>
  <separator name="ionic" >
   <i type="int" name="NSW">    30</i>
   <i type="int" name="IBRION">     2</i>
   <i type="int" name="ISIF">     3</i>
   <i name="PSTRESS">      0.00000000</i>
   <i name="EDIFFG">     -0.03000000</i>
   <i type="int" name="NFREE">     1</i>
   <i name="POTIM">      0.50000000</i>
   <i name="SMASS">     -3.00000000</i>
   <i name="SCALEE">      1.00000000</i>
  </separator>
  <separator name="ionic md" >
   <i name="TEBEG">      0.00010000</i>
   <i name="TEEND">      0.00010000</i>
   <i type="int" name="NBLOCK">     1</i>
   <i type="int" name="KBLOCK">    30</i>
   <i type="int" name="NPACO">   256</i>
   <i name="APACO">     16.00000000</i>
  </separator>
  <separator name="symmetry" >
   <i type="int" name="ISYM">     2</i>
   <i name="SYMPREC">      0.00001000</i>
  </separator>
  <separator name="dos" >
   <i type="logical" name="LORBIT"> F  </i>
   <v name="RWIGS">     -1.00000000     -1.00000000     -1.00000000     -1.00000000</v>
   <i type="int" name="NEDOS">   301</i>
   <i name="EMIN">     10.00000000</i>
   <i name="EMAX">    -10.00000000</i>
   <i name="EFERMI">      0.00000000</i>
  </separator>
  <separator name="writing" >
   <i type="int" name="NWRITE">     2</i>
   <i type="logical" name="LWAVE"> T  </i>
   <i type="logical" name="LCHARG"> T  </i>
   <i type="logical" name="LPARD"> F  </i>
   <i type="logical" name="LVTOT"> F  </i>
   <i type="logical" name="LVHAR"> F  </i>
   <i type="logical" name="LELF"> F  </i>
   <i type="logical" name="LOPTICS"> F  </i>
   <v name="STM">      0.00000000      0.00000000      0.00000000      0.00000000      0.00000000      0.00000000      0.00000000</v>
  </separator>
  <separator name="performance" >
   <i type="int" name="NPAR">     2</i>
   <i type="int" name="NSIM">     4</i>
   <i type="int" name="NBLK">    -1</i>
   <i type="logical" name="LPLANE"> T  </i>
   <i type="logical" name="LSCALAPACK"> T  </i>
   <i type="logical" name="LSCAAWARE"> F  </i>
   <i type="logical" name="LSCALU"> F  </i>
   <i type="logical" name="LASYNC"> F  </i>
   <i type="logical" name="LORBITALREAL"> F  </i>
  </separator>
  <separator name="miscellaneous" >
   <i type="int" name="IDIOT">     3</i>
   <i type="logical" name="LMUSIC"> F  </i>
   <v name="POMASS">     87.62000000     47.88000000     55.84700000     16.00000000</v>
   <v name="DARWINR">      0.00000000      0.00000000      0.00000000      0.00000000</v>
   <v name="DARWINV">      1.00000000      1.00000000      1.00000000      1.00000000</v>
   <i type="logical" name="LCORR"> T  </i>
  </separator>
  <i type="logical" name="GGA_COMPAT"> T  </i>
  <i type="logical" name="LBERRY"> F  </i>
  <i type="int" name="ICORELEVEL">     0</i>
  <i type="logical" name="LDAU"> T  </i>
  <v type="int" name="LDAUTYPE">     2</v>
  <v type="int" name="LDAUL">     0</v>
  <v name="LDAUU">      0.00000000</v>
  <v name="LDAUJ">      0.00000000</v>
  <i type="int" name="LDAUPRINT">     1</i>
  <i type="int" name="I_CONSTRAINED_M">     0</i>
  <separator name="electronic exchange-correlation" >
   <i type="string" name="GGA">--</i>
   <i type="int" name="VOSKOWN">     0</i>
   <i type="logical" name="LHFCALC"> F  </i>
   <i type="string" name="PRECFOCK"></i>
   <i type="logical" name="LSYMGRAD"> F  </i>
   <i type="logical" name="LHFONE"> F  </i>
   <i type="logical" name="LRHFCALC"> F  </i>
   <i type="logical" name="LTHOMAS"> F  </i>
   <i type="logical" name="LMODELHF"> F  </i>
   <i name="ENCUT4O">     -1.00000000</i>
   <i type="int" name="EXXOEP">     0</i>
   <i type="int" name="FOURORBIT">     0</i>
   <i name="AEXX">      0.00000000</i>
   <i name="HFALPHA">      0.00000000</i>
   <i name="MCALPHA">      0.00000000</i>
   <i name="ALDAX">      1.00000000</i>
   <i name="AGGAX">      1.00000000</i>
   <i name="ALDAC">      1.00000000</i>
   <i name="AGGAC">      1.00000000</i>
   <i type="int" name="NKREDX">     1</i>
   <i type="int" name="NKREDY">     1</i>
   <i type="int" name="NKREDZ">     1</i>
   <i type="logical" name="SHIFTRED"> F  </i>
   <i type="logical" name="ODDONLY"> F  </i>
   <i type="logical" name="EVENONLY"> F  </i>
   <i type="int" name="LMAXFOCK">     0</i>
   <i type="int" name="NMAXFOCKAE">     0</i>
   <i type="logical" name="LFOCKAEDFT"> F  </i>
   <i name="HFSCREEN">      0.00000000</i>
   <i name="HFSCREENC">      0.00000000</i>
   <i type="int" name="NBANDSGWLOW">     0</i>
  </separator>
  <separator name="vdW DFT" >
   <i type="logical" name="LUSE_VDW"> F  </i>
   <i name="Zab_VDW">     -0.84910000</i>
   <i name="PARAM1">      0.12340000</i>
   <i name="PARAM2">      1.00000000</i>
   <i name="PARAM3">      0.00000000</i>
  </separator>
  <separator name="model GW" >
   <i type="int" name="MODEL_GW">     0</i>
   <i name="MODEL_EPS0">      7.74534744</i>
   <i name="MODEL_ALPHA">      1.00000000</i>
  </separator>
  <separator name="linear response parameters" >
   <i type="logical" name="LEPSILON"> F  </i>
   <i type="logical" name="LRPA"> F  </i>
   <i type="logical" name="LNABLA"> F  </i>
   <i type="logical" name="LVEL"> F  </i>
   <i type="int" name="KINTER">     0</i>
   <i name="CSHIFT">      0.10000000</i>
   <i name="OMEGAMAX">     -1.00000000</i>
   <i name="DEG_THRESHOLD">      0.00200000</i>
  </separator>
  <separator name="orbital magnetization" >
   <i type="logical" name="NUCIND"> F  </i>
   <v name="MAGPOS">      0.00000000      0.00000000      0.00000000</v>
   <i type="logical" name="LNICSALL"> T  </i>
   <i type="logical" name="ORBITALMAG"> F  </i>
   <i type="logical" name="LMAGBLOCH"> F  </i>
   <i type="logical" name="LCHIMAG"> F  </i>
   <i type="logical" name="LGAUGE"> T  </i>
   <i type="int" name="MAGATOM">     0</i>
   <v name="MAGDIPOL">      0.00000000      0.00000000      0.00000000</v>
   <v name="AVECCONST">      0.00000000      0.00000000      0.00000000</v>
  </separator>
  <separator name="response functions" >
   <i type="logical" name="LADDER"> F  </i>
   <i type="logical" name="LFXC"> F  </i>
   <i type="logical" name="LHARTREE"> T  </i>
   <i type="int" name="IBSE">     0</i>
   <v type="int" name="KPOINT">    -1     0     0     0</v>
   <i type="logical" name="LTCTE"> F  </i>
   <i type="logical" name="LTETE"> F  </i>
   <i type="logical" name="LTRIPLET"> F  </i>
   <i type="logical" name="LFXCEPS"> F  </i>
   <i type="logical" name="LFXHEG"> F  </i>
   <i type="int" name="NATURALO">     0</i>
   <i type="logical" name="L2ORDER"> F  </i>
   <i type="logical" name="LUSEW"> F  </i>
   <i name="ENCUTGW">     -2.00000000</i>
   <i name="ENCUTGWSOFT">     -2.00000000</i>
   <i name="ENCUTLF">     -1.00000000</i>
   <i type="int" name="LMAXMP2">    -1</i>
   <i name="SCISSOR">      0.00000000</i>
   <i type="int" name="NOMEGA">     0</i>
   <i type="int" name="NOMEGAR">     0</i>
   <i type="int" name="NBANDSGW">    -1</i>
   <i type="int" name="NBANDSO">    -1</i>
   <i type="int" name="NBANDSV">    -1</i>
   <i type="int" name="NELM">    40</i>
   <i type="int" name="NELMHF">     1</i>
   <i type="int" name="DIM">     3</i>
   <i type="int" name="ANTIRES">     0</i>
   <i name="OMEGAMAX">    -30.00000000</i>
   <i name="OMEGAMIN">    -30.00000000</i>
   <i name="OMEGATL">   -200.00000000</i>
   <i type="int" name="OMEGAGRID">     0</i>
   <i name="CSHIFT">     -0.10000000</i>
   <i type="logical" name="SELFENERGY"> F  </i>
   <i type="logical" name="LSPECTRAL"> F  </i>
   <i type="logical" name="LSPECTRALGW"> F  </i>
   <i type="logical" name="LSINGLES"> F  </i>
   <i type="logical" name="LFERMIGW"> F  </i>
   <i type="logical" name="ODDONLYGW"> F  </i>
   <i type="logical" name="EVENONLYGW"> F  </i>
   <i type="int" name="NKREDLFX">     1</i>
   <i type="int" name="NKREDLFY">     1</i>
   <i type="int" name="NKREDLFZ">     1</i>
   <i type="int" name="MAXMEM">  1800</i>
   <i type="int" name="TELESCOPE">     0</i>
   <i type="int" name="TAUPAR">     1</i>
   <i type="int" name="OMEGAPAR">    -1</i>
   <i name="LAMBDA">      1.00000000</i>
  </separator>
  <separator name="External order field" >
   <i name="OFIELD_KAPPA">      0.00000000</i>
   <v name="OFIELD_K">      0.00000000      0.00000000      0.00000000</v>
   <i name="OFIELD_Q6_NEAR">      0.00000000</i>
   <i name="OFIELD_Q6_FAR">      0.00000000</i>
   <i name="OFIELD_A">      0.00000000</i>
  </separator>
 </parameters>
 <atominfo>
  <atoms>     156 </atoms>
  <types>       4 </types>
  <array name="atoms" >
   <dimension dim="1">ion</dimension>
   <field type="string">element</field>
   <field type="int">atomtype</field>
   <set>
    <rc><c>Sr</c><c>   1</c></rc>
    <rc><c>Sr</c><c>   1</c></rc>
    <rc><c>Sr</c><c>   1</c></rc>
    <rc><c>Sr</c><c>   1</c></rc>
    <rc><c>Sr</c><c>   1</c></rc>
    <rc><c>Sr</c><c>   1</c></rc>
    <rc><c>Sr</c><c>   1</c></rc>
    <rc><c>Sr</c><c>   1</c></rc>
    <rc><c>Sr</c><c>   1</c></rc>
    <rc><c>Sr</c><c>   1</c></rc>
    <rc><c>Sr</c><c>   1</c></rc>
    <rc><c>Sr</c><c>   1</c></rc>
    <rc><c>Sr</c><c>   1</c></rc>
    <rc><c>Sr</c><c>   1</c></rc>
    <rc><c>Sr</c><c>   1</c></rc>
    <rc><c>Sr</c><c>   1</c></rc>
    <rc><c>Sr</c><c>   1</c></rc>
    <rc><c>Sr</c><c>   1</c></rc>
    <rc><c>Sr</c><c>   1</c></rc>
    <rc><c>Sr</c><c>   1</c></rc>
    <rc><c>Sr</c><c>   1</c></rc>
    <rc><c>Sr</c><c>   1</c></rc>
    <rc><c>Sr</c><c>   1</c></rc>
    <rc><c>Sr</c><c>   1</c></rc>
    <rc><c>Sr</c><c>   1</c></rc>
    <rc><c>Sr</c><c>   1</c></rc>
    <rc><c>Sr</c><c>   1</c></rc>
    <rc><c>Sr</c><c>   1</c></rc>
    <rc><c>Sr</c><c>   1</c></rc>
    <rc><c>Sr</c><c>   1</c></rc>
    <rc><c>Sr</c><c>   1</c></rc>
    <rc><c>Sr</c><c>   1</c></rc>
    <rc><c>Ti</c><c>   2</c></rc>
    <rc><c>Ti</c><c>   2</c></rc>
    <rc><c>Ti</c><c>   2</c></rc>
    <rc><c>Ti</c><c>   2</c></rc>
    <rc><c>Ti</c><c>   2</c></rc>
    <rc><c>Ti</c><c>   2</c></rc>
    <rc><c>Ti</c><c>   2</c></rc>
    <rc><c>Ti</c><c>   2</c></rc>
    <rc><c>Ti</c><c>   2</c></rc>
    <rc><c>Ti</c><c>   2</c></rc>
    <rc><c>Ti</c><c>   2</c></rc>
    <rc><c>Ti</c><c>   2</c></rc>
    <rc><c>Ti</c><c>   2</c></rc>
    <rc><c>Ti</c><c>   2</c></rc>
    <rc><c>Ti</c><c>   2</c></rc>
    <rc><c>Ti</c><c>   2</c></rc>
    <rc><c>Ti</c><c>   2</c></rc>
    <rc><c>Ti</c><c>   2</c></rc>
    <rc><c>Ti</c><c>   2</c></rc>
    <rc><c>Ti</c><c>   2</c></rc>
    <rc><c>Ti</c><c>   2</c></rc>
    <rc><c>Ti</c><c>   2</c></rc>
    <rc><c>Ti</c><c>   2</c></rc>
    <rc><c>Ti</c><c>   2</c></rc>
    <rc><c>Fe</c><c>   3</c></rc>
    <rc><c>Fe</c><c>   3</c></rc>
    <rc><c>Fe</c><c>   3</c></rc>
    <rc><c>Fe</c><c>   3</c></rc>
    <rc><c>Fe</c><c>   3</c></rc>
    <rc><c>Fe</c><c>   3</c></rc>
    <rc><c>Fe</c><c>   3</c></rc>
    <rc><c>Fe</c><c>   3</c></rc>
    <rc><c>O </c><c>   4</c></rc>
    <rc><c>O </c><c>   4</c></rc>
    <rc><c>O </c><c>   4</c></rc>
    <rc><c>O </c><c>   4</c></rc>
    <rc><c>O </c><c>   4</c></rc>
    <rc><c>O </c><c>   4</c></rc>
    <rc><c>O </c><c>   4</c></rc>
    <rc><c>O </c><c>   4</c></rc>
    <rc><c>O </c><c>   4</c></rc>
    <rc><c>O </c><c>   4</c></rc>
    <rc><c>O </c><c>   4</c></rc>
    <rc><c>O </c><c>   4</c></rc>
    <rc><c>O </c><c>   4</c></rc>
    <rc><c>O </c><c>   4</c></rc>
    <rc><c>O </c><c>   4</c></rc>
    <rc><c>O </c><c>   4</c></rc>
    <rc><c>O </c><c>   4</c></rc>
    <rc><c>O </c><c>   4</c></rc>
    <rc><c>O </c><c>   4</c></rc>
    <rc><c>O </c><c>   4</c></rc>
    <rc><c>O </c><c>   4</c></rc>
    <rc><c>O </c><c>   4</c></rc>
    <rc><c>O </c><c>   4</c></rc>
    <rc><c>O </c><c>   4</c></rc>
    <rc><c>O </c><c>   4</c></rc>
    <rc><c>O </c><c>   4</c></rc>
    <rc><c>O </c><c>   4</c></rc>
    <rc><c>O </c><c>   4</c></rc>
    <rc><c>O </c><c>   4</c></rc>
    <rc><c>O </c><c>   4</c></rc>
    <rc><c>O </c><c>   4</c></rc>
    <rc><c>O </c><c>   4</c></rc>
    <rc><c>O </c><c>   4</c></rc>
    <rc><c>O </c><c>   4</c></rc>
    <rc><c>O </c><c>   4</c></rc>
    <rc><c>O </c><c>   4</c></rc>
    <rc><c>O </c><c>   4</c></rc>
    <rc><c>O </c><c>   4</c></rc>
    <rc><c>O </c><c>   4</c></rc>
    <rc><c>O </c><c>   4</c></rc>
    <rc><c>O </c><c>   4</c></rc>
    <rc><c>O </c><c>   4</c></rc>
    <rc><c>O </c><c>   4</c></rc>
    <rc><c>O </c><c>   4</c></rc>
    <rc><c>O </c><c>   4</c></rc>
    <rc><c>O </c><c>   4</c></rc>
    <rc><c>O </c><c>   4</c></rc>
    <rc><c>O </c><c>   4</c></rc>
    <rc><c>O </c><c>   4</c></rc>
    <rc><c>O </c><c>   4</c></rc>
    <rc><c>O </c><c>   4</c></rc>
    <rc><c>O </c><c>   4</c></rc>
    <rc><c>O </c><c>   4</c></rc>
    <rc><c>O </c><c>   4</c></rc>
    <rc><c>O </c><c>   4</c></rc>
    <rc><c>O </c><c>   4</c></rc>
    <rc><c>O </c><c>   4</c></rc>
    <rc><c>O </c><c>   4</c></rc>
    <rc><c>O </c><c>   4</c></rc>
    <rc><c>O </c><c>   4</c></rc>
    <rc><c>O </c><c>   4</c></rc>
    <rc><c>O </c><c>   4</c></rc>
    <rc><c>O </c><c>   4</c></rc>
    <rc><c>O </c><c>   4</c></rc>
    <rc><c>O </c><c>   4</c></rc>
    <rc><c>O </c><c>   4</c></rc>
    <rc><c>O </c><c>   4</c></rc>
    <rc><c>O </c><c>   4</c></rc>
    <rc><c>O </c><c>   4</c></rc>
    <rc><c>O </c><c>   4</c></rc>
    <rc><c>O </c><c>   4</c></rc>
    <rc><c>O </c><c>   4</c></rc>
    <rc><c>O </c><c>   4</c></rc>
    <rc><c>O </c><c>   4</c></rc>
    <rc><c>O </c><c>   4</c></rc>
    <rc><c>O </c><c>   4</c></rc>
    <rc><c>O </c><c>   4</c></rc>
    <rc><c>O </c><c>   4</c></rc>
    <rc><c>O </c><c>   4</c></rc>
    <rc><c>O </c><c>   4</c></rc>
    <rc><c>O </c><c>   4</c></rc>
    <rc><c>O </c><c>   4</c></rc>
    <rc><c>O </c><c>   4</c></rc>
    <rc><c>O </c><c>   4</c></rc>
    <rc><c>O </c><c>   4</c></rc>
    <rc><c>O </c><c>   4</c></rc>
    <rc><c>O </c><c>   4</c></rc>
    <rc><c>O </c><c>   4</c></rc>
    <rc><c>O </c><c>   4</c></rc>
    <rc><c>O </c><c>   4</c></rc>
    <rc><c>O </c><c>   4</c></rc>
    <rc><c>O </c><c>   4</c></rc>
   </set>
  </array>
  <array name="atomtypes" >
   <dimension dim="1">type</dimension>
   <field type="int">atomspertype</field>
   <field type="string">element</field>
   <field>mass</field>
   <field>valence</field>
   <field type="string">pseudopotential</field>
   <set>
    <rc><c>  32</c><c>Sr</c><c>     87.62000000</c><c>     10.00000000</c><c>  PAW_PBE Sr_sv 07Sep2000               </c></rc>
    <rc><c>  24</c><c>Ti</c><c>     47.88000000</c><c>      4.00000000</c><c>  PAW_PBE Ti 08Apr2002                  </c></rc>
    <rc><c>   8</c><c>Fe</c><c>     55.84700000</c><c>      8.00000000</c><c>  PAW_PBE Fe 06Sep2000                  </c></rc>
    <rc><c>  92</c><c>O </c><c>     16.00000000</c><c>      6.00000000</c><c>  PAW_PBE O 08Apr2002                   </c></rc>
   </set>
  </array>
 </atominfo>
 <structure name="initialpos" >
  <crystal>
   <varray name="basis" >
    <v>      11.23027921      -0.00696991       0.00641417 </v>
    <v>      -0.00682812      11.24339541      -0.01239623 </v>
    <v>       0.00910563      -0.01763774      15.94876461 </v>
   </varray>
   <i name="volume">   2013.79033394 </i>
   <varray name="rec_basis" >
    <v>       0.08904504       0.00005402      -0.00005078 </v>
    <v>       0.00005514       0.08894125       0.00009833 </v>
    <v>      -0.00003577       0.00006911       0.06270088 </v>
   </varray>
  </crystal>
  <varray name="positions" >
   <v>       0.00226107       0.26373060       0.13165461 </v>
   <v>       0.00058700       0.25679352       0.62416498 </v>
   <v>       0.00552506       0.72118399       0.12833837 </v>
   <v>       0.00082321       0.74448360       0.62462736 </v>
   <v>       0.49138775       0.23728308       0.12803155 </v>
   <v>       0.50032806       0.25058985       0.62510337 </v>
   <v>       0.50183050       0.75687826       0.12390253 </v>
   <v>       0.50009355       0.75098506       0.62657658 </v>
   <v>       0.99797796       0.25804724       0.38154882 </v>
   <v>       0.00617917       0.26413335       0.86107249 </v>
   <v>       0.99909928       0.74324387       0.37909355 </v>
   <v>       0.00232382       0.73434578       0.86476199 </v>
   <v>       0.49932822       0.24561402       0.38059708 </v>
   <v>       0.49568852       0.24655418       0.86712064 </v>
   <v>       0.50477764       0.75215487       0.38240047 </v>
   <v>       0.49837677       0.75442561       0.86711789 </v>
   <v>       0.26854639       0.00107833       0.12775604 </v>
   <v>       0.25194780       0.00103094       0.62676429 </v>
   <v>       0.24123543       0.49686055       0.12930194 </v>
   <v>       0.24664584       0.50099861       0.62830758 </v>
   <v>       0.73483569       0.99835170       0.12472891 </v>
   <v>       0.74738414       0.00057720       0.62294511 </v>
   <v>       0.76344075       0.50329699       0.12500469 </v>
   <v>       0.75275763       0.50123189       0.62468932 </v>
   <v>       0.25539736       0.00347306       0.38159095 </v>
   <v>       0.25687202       0.00238086       0.86662975 </v>
   <v>       0.24272155       0.49638990       0.38064120 </v>
   <v>       0.24611897       0.50414250       0.86315581 </v>
   <v>       0.74452558       0.99829323       0.38378416 </v>
   <v>       0.73711243       0.00284114       0.86793763 </v>
   <v>       0.75752523       0.50244211       0.38156154 </v>
   <v>       0.75518158       0.50242714       0.86791510 </v>
   <v>       0.99518398       0.96928535       0.00596627 </v>
   <v>       0.99859798       0.99814256       0.49764271 </v>
   <v>       0.00054710       0.49712474       0.99786882 </v>
   <v>       0.99791780       0.50065858       0.50087570 </v>
   <v>       0.50225303       0.99975759       0.50196373 </v>
   <v>       0.49816048       0.51060886       0.99998015 </v>
   <v>       0.50129290       0.50111370       0.49987642 </v>
   <v>       0.25812423       0.26513665       0.99775822 </v>
   <v>       0.25056011       0.25044074       0.50293264 </v>
   <v>       0.25386052       0.74701103       0.99707533 </v>
   <v>       0.25041780       0.75067341       0.50223559 </v>
   <v>       0.73026172       0.26086724       0.00172175 </v>
   <v>       0.74362333       0.74757809       0.99855246 </v>
   <v>       0.24922258       0.24709437       0.25181713 </v>
   <v>       0.75051790       0.24912964       0.25149610 </v>
   <v>       0.75123093       0.25161969       0.74750731 </v>
   <v>       0.75302003       0.74701488       0.25007848 </v>
   <v>       0.75174117       0.75056491       0.74851910 </v>
   <v>       0.98987966       0.00823033       0.25106445 </v>
   <v>       0.00134643       0.00219029       0.74381773 </v>
   <v>       0.50283579       0.99857260       0.25120344 </v>
   <v>       0.49667608       0.00087535       0.74982354 </v>
   <v>       0.51069221       0.49207890       0.24717814 </v>
   <v>       0.49884485       0.50041431       0.74863945 </v>
   <v>       0.49663247       0.99773818       0.99782104 </v>
   <v>       0.74904583       0.25074041       0.49995011 </v>
   <v>       0.75182406       0.75124406       0.50088189 </v>
   <v>       0.24915856       0.25156194       0.74815499 </v>
   <v>       0.25380378       0.74763345       0.25113231 </v>
   <v>       0.24805188       0.75104580       0.74883444 </v>
   <v>       0.99930584       0.49490320       0.25332384 </v>
   <v>       0.00229860       0.50060001       0.74630794 </v>
   <v>       0.13180611       0.10585042       0.24908481 </v>
   <v>       0.11358438       0.13246742       0.74544660 </v>
   <v>       0.13810837       0.62917251       0.25001972 </v>
   <v>       0.11825909       0.63430593       0.74679402 </v>
   <v>       0.61458599       0.13610114       0.24501042 </v>
   <v>       0.61582891       0.13508101       0.75028508 </v>
   <v>       0.60961692       0.63982249       0.24873229 </v>
   <v>       0.61750040       0.63408617       0.74768159 </v>
   <v>       0.37727195       0.37343112       0.24602808 </v>
   <v>       0.38655455       0.36837033       0.75396566 </v>
   <v>       0.37823653       0.86228415       0.25028558 </v>
   <v>       0.38127084       0.86928433       0.75105678 </v>
   <v>       0.88062044       0.36170455       0.25068951 </v>
   <v>       0.88008089       0.36783210       0.74969160 </v>
   <v>       0.91499394       0.85709595       0.23781081 </v>
   <v>       0.88318162       0.87232861       0.76643344 </v>
   <v>       0.37283718       0.11898919       0.24860107 </v>
   <v>       0.36725064       0.11762493       0.74933565 </v>
   <v>       0.37019547       0.61694712       0.74986549 </v>
   <v>       0.86150185       0.10875978       0.25708122 </v>
   <v>       0.86646525       0.11580313       0.75475164 </v>
   <v>       0.86582424       0.61438523       0.24872032 </v>
   <v>       0.86739985       0.62034332       0.75011723 </v>
   <v>       0.12710100       0.36858963       0.25049065 </v>
   <v>       0.13385922       0.38302753       0.74920515 </v>
   <v>       0.12806403       0.88816014       0.76067509 </v>
   <v>       0.63480579       0.38444545       0.23525292 </v>
   <v>       0.63471124       0.38414957       0.75325251 </v>
   <v>       0.64210076       0.88894417       0.24958888 </v>
   <v>       0.63249328       0.88417061       0.75051605 </v>
   <v>       0.35388284       0.40018080       0.00107244 </v>
   <v>       0.36322832       0.38753779       0.49586820 </v>
   <v>       0.34811324       0.89157457       0.00032584 </v>
   <v>       0.36380990       0.88762340       0.49710849 </v>
   <v>       0.85729122       0.38481894       0.00100516 </v>
   <v>       0.86524627       0.38496283       0.49727237 </v>
   <v>       0.84532747       0.90259215       0.99461214 </v>
   <v>       0.86569379       0.88849601       0.49725806 </v>
   <v>       0.13682054       0.11163026       0.50118352 </v>
   <v>       0.14613223       0.59962510       0.00406191 </v>
   <v>       0.13815928       0.61409704       0.49894328 </v>
   <v>       0.64180940       0.11069330       0.00158109 </v>
   <v>       0.63444937       0.11433372       0.50020832 </v>
   <v>       0.64333949       0.60273942       0.00803108 </v>
   <v>       0.63485842       0.61458076       0.49634027 </v>
   <v>       0.10074621       0.34285841       0.00077095 </v>
   <v>       0.11500842       0.36294950       0.49761498 </v>
   <v>       0.09963437       0.84329630       0.00501114 </v>
   <v>       0.11418815       0.86214745       0.49666402 </v>
   <v>       0.59778905       0.36005073       0.01468462 </v>
   <v>       0.61085937       0.36742203       0.49379292 </v>
   <v>       0.60550909       0.85334496       0.99960070 </v>
   <v>       0.61405852       0.86602657       0.49951956 </v>
   <v>       0.37540990       0.13633734       0.00279941 </v>
   <v>       0.38655393       0.13627521       0.49832572 </v>
   <v>       0.39720876       0.64966548       0.99811150 </v>
   <v>       0.38674806       0.63888383       0.50112624 </v>
   <v>       0.88913517       0.13327933       0.49317126 </v>
   <v>       0.89173031       0.63886668       0.00096231 </v>
   <v>       0.88672883       0.63522528       0.49889792 </v>
   <v>       0.00434361       0.03227609       0.11557533 </v>
   <v>       0.99560198       0.99169921       0.62513752 </v>
   <v>       0.00110590       0.49619592       0.12548428 </v>
   <v>       0.99927542       0.49877560       0.62211313 </v>
   <v>       0.49812796       0.99627130       0.12589932 </v>
   <v>       0.49880414       0.99922698       0.62462613 </v>
   <v>       0.47272506       0.52450500       0.13119900 </v>
   <v>       0.50158436       0.49650839       0.62387607 </v>
   <v>       0.01142676       0.98636047       0.36933186 </v>
   <v>       0.02565680       0.05487315       0.91070026 </v>
   <v>       0.00160347       0.50029674       0.37491151 </v>
   <v>       0.00207227       0.50023200       0.87707511 </v>
   <v>       0.50214571       0.00064775       0.37370591 </v>
   <v>       0.49867334       0.00213096       0.87470009 </v>
   <v>       0.48639949       0.51137850       0.36668589 </v>
   <v>       0.50524073       0.50187462       0.87978325 </v>
   <v>       0.24991114       0.24514681       0.37329198 </v>
   <v>       0.24573983       0.24383356       0.87877161 </v>
   <v>       0.25354616       0.74921800       0.36722965 </v>
   <v>       0.24624128       0.74533368       0.87848121 </v>
   <v>       0.74141982       0.25260672       0.37035417 </v>
   <v>       0.75072414       0.24665888       0.88088613 </v>
   <v>       0.75704518       0.75564948       0.37044946 </v>
   <v>       0.74333017       0.74084317       0.87742385 </v>
   <v>       0.24151737       0.24065188       0.12248064 </v>
   <v>       0.25388758       0.25273067       0.62278410 </v>
   <v>       0.24992822       0.75229175       0.13372303 </v>
   <v>       0.24815767       0.75785323       0.62294519 </v>
   <v>       0.77057419       0.23139455       0.12052935 </v>
   <v>       0.75076496       0.24933736       0.62547191 </v>
   <v>       0.75292714       0.75271220       0.12414763 </v>
   <v>       0.75615191       0.75689827       0.62700264 </v>
  </varray>
 </structure>
 <calculation>
  <scstep>
   <time name="dav">  605.60  605.64</time>
   <time name="total">  612.83  612.89</time>
   <energy>
    <i name="alphaZ">   5604.03739537 </i>
    <i name="ewald"> -60718.05753370 </i>
    <i name="hartreedc"> -16762.89526288 </i>
    <i name="XCdc">   2960.63722736 </i>
    <i name="pawpsdc"> 112761.61858634 </i>
    <i name="pawaedc">-111659.68584877 </i>
    <i name="eentropy">     -0.00000000 </i>
    <i name="bandstr">  -7087.73302858 </i>
    <i name="atom">  73783.44779670 </i>
    <i name="e_fr_energy">  -1118.63066815 </i>
    <i name="e_wo_entrp">  -1118.63066815 </i>
    <i name="e_0_energy">  -1118.63066815 </i>
   </energy>
  </scstep>
  <scstep>
   <time name="diag">   65.00   65.01</time>
   <time name="diis">   62.26   62.28</time>
   <time name="orth">   33.51   33.51</time>
   <time name="total">  167.99  168.03</time>
   <energy>
    <i name="e_fr_energy">  -1118.63066929 </i>
    <i name="e_wo_entrp">  -1118.63066929 </i>
    <i name="e_0_energy">  -1118.63066929 </i>
   </energy>
  </scstep>
  <scstep>
   <time name="diag">   64.96   65.04</time>
   <time name="diis">   58.00   58.03</time>
   <time name="orth">   33.44   33.44</time>
   <time name="total">  163.63  163.79</time>
   <energy>
    <i name="e_fr_energy">  -1118.63066778 </i>
    <i name="e_wo_entrp">  -1118.63066778 </i>
    <i name="e_0_energy">  -1118.63066778 </i>
   </energy>
  </scstep>
  <scstep>
   <time name="diag">   64.96   64.98</time>
   <time name="diis">   51.14   51.16</time>
   <time name="orth">   33.51   33.51</time>
   <time name="total">  156.85  156.94</time>
   <energy>
    <i name="e_fr_energy">  -1118.63066794 </i>
    <i name="e_wo_entrp">  -1118.63066794 </i>
    <i name="e_0_energy">  -1118.63066794 </i>
   </energy>
  </scstep>
  <scstep>
   <time name="diag">   64.91   64.95</time>
   <time name="diis">   49.39   49.43</time>
   <time name="orth">   33.53   33.53</time>
   <time name="total">  155.06  155.19</time>
   <energy>
    <i name="e_fr_energy">  -1118.63066801 </i>
    <i name="e_wo_entrp">  -1118.63066801 </i>
    <i name="e_0_energy">  -1118.63066801 </i>
   </energy>
  </scstep>
  <scstep>
   <time name="diag">   64.97   64.98</time>
   <time name="diis">   46.53   46.53</time>
   <time name="orth">   33.53   33.53</time>
   <time name="total">  152.25  152.32</time>
   <energy>
    <i name="e_fr_energy">  -1118.63066809 </i>
    <i name="e_wo_entrp">  -1118.63066809 </i>
    <i name="e_0_energy">  -1118.63066809 </i>
   </energy>
  </scstep>
  <scstep>
   <time name="diag">   64.91   64.95</time>
   <time name="diis">   46.55   46.55</time>
   <time name="orth">   33.55   33.55</time>
   <time name="total">  152.23  152.35</time>
   <energy>
    <i name="e_fr_energy">  -1118.63066815 </i>
    <i name="e_wo_entrp">  -1118.63066815 </i>
    <i name="e_0_energy">  -1118.63066815 </i>
   </energy>
  </scstep>
  <scstep>
   <time name="diag">   64.82   64.84</time>
   <time name="diis">   43.97   43.97</time>
   <time name="orth">   33.51   33.51</time>
   <time name="total">  143.35  143.42</time>
   <energy>
    <i name="alphaZ">   5604.03739537 </i>
    <i name="ewald"> -60718.05753370 </i>
    <i name="hartreedc"> -16762.91200692 </i>
    <i name="XCdc">   2960.63805830 </i>
    <i name="pawpsdc"> 112760.77130651 </i>
    <i name="pawaedc">-111658.84275412 </i>
    <i name="eentropy">     -0.00000000 </i>
    <i name="bandstr">  -7087.71293033 </i>
    <i name="atom">  73783.44779670 </i>
    <i name="e_fr_energy">  -1118.63066818 </i>
    <i name="e_wo_entrp">  -1118.63066818 </i>
    <i name="e_0_energy">  -1118.63066818 </i>
   </energy>
  </scstep>
  <structure>
   <crystal>
    <varray name="basis" >
     <v>      11.23027921      -0.00696991       0.00641417 </v>
     <v>      -0.00682812      11.24339541      -0.01239623 </v>
     <v>       0.00910563      -0.01763774      15.94876461 </v>
    </varray>
    <i name="volume">   2013.79033394 </i>
    <varray name="rec_basis" >
     <v>       0.08904504       0.00005402      -0.00005078 </v>
     <v>       0.00005514       0.08894125       0.00009833 </v>
     <v>      -0.00003577       0.00006911       0.06270088 </v>
    </varray>
   </crystal>
   <varray name="positions" >
    <v>       0.00226107       0.26373060       0.13165461 </v>
    <v>       0.00058700       0.25679352       0.62416498 </v>
    <v>       0.00552506       0.72118399       0.12833837 </v>
    <v>       0.00082321       0.74448360       0.62462736 </v>
    <v>       0.49138775       0.23728308       0.12803155 </v>
    <v>       0.50032806       0.25058985       0.62510337 </v>
    <v>       0.50183050       0.75687826       0.12390253 </v>
    <v>       0.50009355       0.75098506       0.62657658 </v>
    <v>       0.99797796       0.25804724       0.38154882 </v>
    <v>       0.00617917       0.26413335       0.86107249 </v>
    <v>       0.99909928       0.74324387       0.37909355 </v>
    <v>       0.00232382       0.73434578       0.86476199 </v>
    <v>       0.49932822       0.24561402       0.38059708 </v>
    <v>       0.49568852       0.24655418       0.86712064 </v>
    <v>       0.50477764       0.75215487       0.38240047 </v>
    <v>       0.49837677       0.75442561       0.86711789 </v>
    <v>       0.26854639       0.00107833       0.12775604 </v>
    <v>       0.25194780       0.00103094       0.62676429 </v>
    <v>       0.24123543       0.49686055       0.12930194 </v>
    <v>       0.24664584       0.50099861       0.62830758 </v>
    <v>       0.73483569       0.99835170       0.12472891 </v>
    <v>       0.74738414       0.00057720       0.62294511 </v>
    <v>       0.76344075       0.50329699       0.12500469 </v>
    <v>       0.75275763       0.50123189       0.62468932 </v>
    <v>       0.25539736       0.00347306       0.38159095 </v>
    <v>       0.25687202       0.00238086       0.86662975 </v>
    <v>       0.24272155       0.49638990       0.38064120 </v>
    <v>       0.24611897       0.50414250       0.86315581 </v>
    <v>       0.74452558       0.99829323       0.38378416 </v>
    <v>       0.73711243       0.00284114       0.86793763 </v>
    <v>       0.75752523       0.50244211       0.38156154 </v>
    <v>       0.75518158       0.50242714       0.86791510 </v>
    <v>       0.99518398       0.96928535       0.00596627 </v>
    <v>       0.99859798       0.99814256       0.49764271 </v>
    <v>       0.00054710       0.49712474       0.99786882 </v>
    <v>       0.99791780       0.50065858       0.50087570 </v>
    <v>       0.50225303       0.99975759       0.50196373 </v>
    <v>       0.49816048       0.51060886       0.99998015 </v>
    <v>       0.50129290       0.50111370       0.49987642 </v>
    <v>       0.25812423       0.26513665       0.99775822 </v>
    <v>       0.25056011       0.25044074       0.50293264 </v>
    <v>       0.25386052       0.74701103       0.99707533 </v>
    <v>       0.25041780       0.75067341       0.50223559 </v>
    <v>       0.73026172       0.26086724       0.00172175 </v>
    <v>       0.74362333       0.74757809       0.99855246 </v>
    <v>       0.24922258       0.24709437       0.25181713 </v>
    <v>       0.75051790       0.24912964       0.25149610 </v>
    <v>       0.75123093       0.25161969       0.74750731 </v>
    <v>       0.75302003       0.74701488       0.25007848 </v>
    <v>       0.75174117       0.75056491       0.74851910 </v>
    <v>       0.98987966       0.00823033       0.25106445 </v>
    <v>       0.00134643       0.00219029       0.74381773 </v>
    <v>       0.50283579       0.99857260       0.25120344 </v>
    <v>       0.49667608       0.00087535       0.74982354 </v>
    <v>       0.51069221       0.49207890       0.24717814 </v>
    <v>       0.49884485       0.50041431       0.74863945 </v>
    <v>       0.49663247       0.99773818       0.99782104 </v>
    <v>       0.74904583       0.25074041       0.49995011 </v>
    <v>       0.75182406       0.75124406       0.50088189 </v>
    <v>       0.24915856       0.25156194       0.74815499 </v>
    <v>       0.25380378       0.74763345       0.25113231 </v>
    <v>       0.24805188       0.75104580       0.74883444 </v>
    <v>       0.99930584       0.49490320       0.25332384 </v>
    <v>       0.00229860       0.50060001       0.74630794 </v>
    <v>       0.13180611       0.10585042       0.24908481 </v>
    <v>       0.11358438       0.13246742       0.74544660 </v>
    <v>       0.13810837       0.62917251       0.25001972 </v>
    <v>       0.11825909       0.63430593       0.74679402 </v>
    <v>       0.61458599       0.13610114       0.24501042 </v>
    <v>       0.61582891       0.13508101       0.75028508 </v>
    <v>       0.60961692       0.63982249       0.24873229 </v>
    <v>       0.61750040       0.63408617       0.74768159 </v>
    <v>       0.37727195       0.37343112       0.24602808 </v>
    <v>       0.38655455       0.36837033       0.75396566 </v>
    <v>       0.37823653       0.86228415       0.25028558 </v>
    <v>       0.38127084       0.86928433       0.75105678 </v>
    <v>       0.88062044       0.36170455       0.25068951 </v>
    <v>       0.88008089       0.36783210       0.74969160 </v>
    <v>       0.91499394       0.85709595       0.23781081 </v>
    <v>       0.88318162       0.87232861       0.76643344 </v>
    <v>       0.37283718       0.11898919       0.24860107 </v>
    <v>       0.36725064       0.11762493       0.74933565 </v>
    <v>       0.37019547       0.61694712       0.74986549 </v>
    <v>       0.86150185       0.10875978       0.25708122 </v>
    <v>       0.86646525       0.11580313       0.75475164 </v>
    <v>       0.86582424       0.61438523       0.24872032 </v>
    <v>       0.86739985       0.62034332       0.75011723 </v>
    <v>       0.12710100       0.36858963       0.25049065 </v>
    <v>       0.13385922       0.38302753       0.74920515 </v>
    <v>       0.12806403       0.88816014       0.76067509 </v>
    <v>       0.63480579       0.38444545       0.23525292 </v>
    <v>       0.63471124       0.38414957       0.75325251 </v>
    <v>       0.64210076       0.88894417       0.24958888 </v>
    <v>       0.63249328       0.88417061       0.75051605 </v>
    <v>       0.35388284       0.40018080       0.00107244 </v>
    <v>       0.36322832       0.38753779       0.49586820 </v>
    <v>       0.34811324       0.89157457       0.00032584 </v>
    <v>       0.36380990       0.88762340       0.49710849 </v>
    <v>       0.85729122       0.38481894       0.00100516 </v>
    <v>       0.86524627       0.38496283       0.49727237 </v>
    <v>       0.84532747       0.90259215       0.99461214 </v>
    <v>       0.86569379       0.88849601       0.49725806 </v>
    <v>       0.13682054       0.11163026       0.50118352 </v>
    <v>       0.14613223       0.59962510       0.00406191 </v>
    <v>       0.13815928       0.61409704       0.49894328 </v>
    <v>       0.64180940       0.11069330       0.00158109 </v>
    <v>       0.63444937       0.11433372       0.50020832 </v>
    <v>       0.64333949       0.60273942       0.00803108 </v>
    <v>       0.63485842       0.61458076       0.49634027 </v>
    <v>       0.10074621       0.34285841       0.00077095 </v>
    <v>       0.11500842       0.36294950       0.49761498 </v>
    <v>       0.09963437       0.84329630       0.00501114 </v>
    <v>       0.11418815       0.86214745       0.49666402 </v>
    <v>       0.59778905       0.36005073       0.01468462 </v>
    <v>       0.61085937       0.36742203       0.49379292 </v>
    <v>       0.60550909       0.85334496       0.99960070 </v>
    <v>       0.61405852       0.86602657       0.49951956 </v>
    <v>       0.37540990       0.13633734       0.00279941 </v>
    <v>       0.38655393       0.13627521       0.49832572 </v>
    <v>       0.39720876       0.64966548       0.99811150 </v>
    <v>       0.38674806       0.63888383       0.50112624 </v>
    <v>       0.88913517       0.13327933       0.49317126 </v>
    <v>       0.89173031       0.63886668       0.00096231 </v>
    <v>       0.88672883       0.63522528       0.49889792 </v>
    <v>       0.00434361       0.03227609       0.11557533 </v>
    <v>       0.99560198       0.99169921       0.62513752 </v>
    <v>       0.00110590       0.49619592       0.12548428 </v>
    <v>       0.99927542       0.49877560       0.62211313 </v>
    <v>       0.49812796       0.99627130       0.12589932 </v>
    <v>       0.49880414       0.99922698       0.62462613 </v>
    <v>       0.47272506       0.52450500       0.13119900 </v>
    <v>       0.50158436       0.49650839       0.62387607 </v>
    <v>       0.01142676       0.98636047       0.36933186 </v>
    <v>       0.02565680       0.05487315       0.91070026 </v>
    <v>       0.00160347       0.50029674       0.37491151 </v>
    <v>       0.00207227       0.50023200       0.87707511 </v>
    <v>       0.50214571       0.00064775       0.37370591 </v>
    <v>       0.49867334       0.00213096       0.87470009 </v>
    <v>       0.48639949       0.51137850       0.36668589 </v>
    <v>       0.50524073       0.50187462       0.87978325 </v>
    <v>       0.24991114       0.24514681       0.37329198 </v>
    <v>       0.24573983       0.24383356       0.87877161 </v>
    <v>       0.25354616       0.74921800       0.36722965 </v>
    <v>       0.24624128       0.74533368       0.87848121 </v>
    <v>       0.74141982       0.25260672       0.37035417 </v>
    <v>       0.75072414       0.24665888       0.88088613 </v>
    <v>       0.75704518       0.75564948       0.37044946 </v>
    <v>       0.74333017       0.74084317       0.87742385 </v>
    <v>       0.24151737       0.24065188       0.12248064 </v>
    <v>       0.25388758       0.25273067       0.62278410 </v>
    <v>       0.24992822       0.75229175       0.13372303 </v>
    <v>       0.24815767       0.75785323       0.62294519 </v>
    <v>       0.77057419       0.23139455       0.12052935 </v>
    <v>       0.75076496       0.24933736       0.62547191 </v>
    <v>       0.75292714       0.75271220       0.12414763 </v>
    <v>       0.75615191       0.75689827       0.62700264 </v>
   </varray>
  </structure>
  <varray name="forces" >
   <v>      -0.00216351      -0.01360060      -0.00854539 </v>
   <v>      -0.00883333      -0.00315514      -0.00211142 </v>
   <v>       0.00366259       0.01616432      -0.01091449 </v>
   <v>      -0.00264542       0.00887934       0.00014288 </v>
   <v>       0.00135905       0.00254663       0.00635273 </v>
   <v>       0.00428892       0.00460570       0.00064187 </v>
   <v>      -0.00085403      -0.01026763      -0.00493081 </v>
   <v>       0.00548739       0.00259599      -0.00318250 </v>
   <v>      -0.00162043      -0.00914602      -0.00506963 </v>
   <v>       0.00054134      -0.01400188       0.00468289 </v>
   <v>      -0.00238954      -0.00490133       0.00060244 </v>
   <v>       0.01187924       0.00929031       0.00917493 </v>
   <v>       0.00154878       0.00216112      -0.00440382 </v>
   <v>       0.00341014       0.00177508       0.00596630 </v>
   <v>       0.00705057       0.00447523       0.00014297 </v>
   <v>       0.00621760      -0.00729474       0.01509794 </v>
   <v>      -0.00923069       0.00198640       0.00114797 </v>
   <v>      -0.00216687      -0.00558070       0.00032465 </v>
   <v>       0.00439387      -0.00604858       0.00187879 </v>
   <v>       0.00132989      -0.00278140       0.00046940 </v>
   <v>       0.00253349       0.00188086       0.00198307 </v>
   <v>       0.00727331      -0.01091865      -0.00467160 </v>
   <v>      -0.00712012       0.01300401       0.00723103 </v>
   <v>       0.00165729      -0.00456508       0.00325197 </v>
   <v>      -0.00243923       0.00733162       0.00396202 </v>
   <v>      -0.00603055       0.00209485       0.01047758 </v>
   <v>       0.00042584       0.00439411      -0.01417916 </v>
   <v>      -0.00574602       0.00524319       0.01738114 </v>
   <v>      -0.00269959       0.00846779      -0.00253479 </v>
   <v>      -0.00524420      -0.00515880      -0.00315934 </v>
   <v>      -0.00790727      -0.00395052      -0.00059359 </v>
   <v>      -0.00987786       0.00056557      -0.00509490 </v>
   <v>       0.00594637       0.00368810      -0.01910957 </v>
   <v>      -0.01065325       0.00384140       0.00240866 </v>
   <v>       0.02670164       0.01081666      -0.00137110 </v>
   <v>      -0.01744793      -0.00323546      -0.00195333 </v>
   <v>      -0.00517763      -0.00285055      -0.01038389 </v>
   <v>       0.00556653       0.00975810      -0.00716361 </v>
   <v>      -0.00136487      -0.01070922      -0.01083050 </v>
   <v>      -0.00108559       0.00226454      -0.00057429 </v>
   <v>       0.00211626      -0.01228924       0.00962465 </v>
   <v>      -0.01022930      -0.01383594       0.00936723 </v>
   <v>       0.01332165       0.00822595      -0.00579393 </v>
   <v>      -0.01037550      -0.01362726       0.00443913 </v>
   <v>      -0.00713642       0.01487780      -0.00589193 </v>
   <v>       0.00031666       0.01576038       0.00141190 </v>
   <v>      -0.00116304      -0.00960699       0.01568768 </v>
   <v>       0.00767412       0.01296374      -0.01350563 </v>
   <v>      -0.00450242       0.00121355       0.03169293 </v>
   <v>      -0.00647406       0.02353133      -0.01659048 </v>
   <v>       0.00813875      -0.02030668      -0.00075589 </v>
   <v>      -0.00860579      -0.01412199      -0.01640140 </v>
   <v>      -0.00059321       0.02454177       0.00855498 </v>
   <v>       0.00744897      -0.00343397      -0.00060525 </v>
   <v>      -0.01213119       0.00773659       0.00199377 </v>
   <v>       0.02718477      -0.00753195       0.01758537 </v>
   <v>       0.00851871       0.00774606      -0.01129018 </v>
   <v>       0.00332992       0.00189067      -0.01201953 </v>
   <v>       0.00397488       0.00967347       0.00290660 </v>
   <v>      -0.00749567      -0.00024044      -0.00182640 </v>
   <v>      -0.00659845      -0.00656907      -0.00800218 </v>
   <v>      -0.01329559       0.01364724      -0.00416394 </v>
   <v>       0.00914419       0.00308896      -0.00526656 </v>
   <v>      -0.01532220      -0.00192136       0.00258847 </v>
   <v>       0.00010047       0.00169507      -0.00453953 </v>
   <v>       0.00302031       0.01046097      -0.01388062 </v>
   <v>      -0.00883172      -0.00501684       0.00557623 </v>
   <v>       0.00232985       0.00205012       0.00095813 </v>
   <v>      -0.00134550      -0.02078113      -0.01222718 </v>
   <v>      -0.01825141      -0.01878783       0.00056618 </v>
   <v>       0.00824754       0.00252558      -0.00620135 </v>
   <v>      -0.01516475      -0.00801116      -0.01198093 </v>
   <v>      -0.01285285      -0.00256817       0.00046753 </v>
   <v>      -0.00364496      -0.00075276       0.00495513 </v>
   <v>      -0.00215249       0.00126781       0.00357275 </v>
   <v>       0.00844058      -0.01811460      -0.00002759 </v>
   <v>      -0.00735303      -0.00394940       0.00683717 </v>
   <v>       0.02596788       0.00326558       0.00606660 </v>
   <v>      -0.01107615       0.00419394       0.01152379 </v>
   <v>       0.00128880      -0.00417683       0.00431738 </v>
   <v>       0.00977316      -0.00836125      -0.00065123 </v>
   <v>      -0.00100180      -0.01066565      -0.00911786 </v>
   <v>       0.00296633       0.00861967       0.00609364 </v>
   <v>       0.01227220       0.02368363       0.01141877 </v>
   <v>       0.00182628       0.00549709       0.01125327 </v>
   <v>       0.00234031      -0.00681155      -0.00655243 </v>
   <v>      -0.00223241      -0.00266532       0.00602764 </v>
   <v>      -0.00962311       0.01274071      -0.00103153 </v>
   <v>       0.00495003       0.00002332      -0.00464562 </v>
   <v>      -0.00475447      -0.01504266      -0.01398571 </v>
   <v>       0.00392643      -0.00487269      -0.00968966 </v>
   <v>      -0.02262696      -0.00152945      -0.00187776 </v>
   <v>       0.00098841      -0.00207876      -0.00596321 </v>
   <v>      -0.00503869       0.00012380       0.00113205 </v>
   <v>      -0.00260555      -0.01393193      -0.01006464 </v>
   <v>       0.01344828       0.01020624      -0.00845950 </v>
   <v>       0.00974496      -0.00566802      -0.00993067 </v>
   <v>      -0.00270365      -0.01242264      -0.00477154 </v>
   <v>       0.00708600       0.00232866      -0.00066681 </v>
   <v>       0.00768840       0.00238072      -0.00523486 </v>
   <v>      -0.00911858      -0.01155916      -0.00962742 </v>
   <v>       0.00155949      -0.00576209      -0.00859720 </v>
   <v>      -0.00214229       0.00203249       0.01002272 </v>
   <v>      -0.00888665       0.00914816       0.00525179 </v>
   <v>      -0.00153627      -0.00633209       0.01464304 </v>
   <v>      -0.00774053       0.00881716       0.00666023 </v>
   <v>      -0.00033532      -0.00415208       0.00411847 </v>
   <v>       0.00829437       0.00363338       0.00582607 </v>
   <v>      -0.00974579      -0.00567481       0.01046382 </v>
   <v>       0.01372331       0.02044993      -0.00353825 </v>
   <v>      -0.00378671       0.01073836       0.00479173 </v>
   <v>       0.00547743       0.01159312       0.00506427 </v>
   <v>       0.00845743       0.00547628       0.01154887 </v>
   <v>       0.00686434      -0.00229006       0.00701645 </v>
   <v>      -0.00604333       0.00702823       0.01553020 </v>
   <v>       0.01438817      -0.00793354       0.00206869 </v>
   <v>      -0.01055353      -0.00622324       0.00411885 </v>
   <v>       0.00346226       0.00127810      -0.01096700 </v>
   <v>       0.00164748      -0.00975239      -0.00312477 </v>
   <v>      -0.02086011       0.00351893      -0.00650788 </v>
   <v>       0.00415547      -0.00649513      -0.00636510 </v>
   <v>      -0.00374793      -0.00908508      -0.01306744 </v>
   <v>      -0.00606884      -0.00173472       0.00274582 </v>
   <v>       0.01760083      -0.00731137      -0.00564140 </v>
   <v>       0.00371085      -0.00614484       0.02105860 </v>
   <v>      -0.01451624       0.00423247       0.00898695 </v>
   <v>      -0.00312835      -0.00850909      -0.00695790 </v>
   <v>       0.00077647      -0.01060720       0.00776346 </v>
   <v>       0.00142587       0.00540320       0.01243008 </v>
   <v>      -0.00920353       0.00635998       0.00312842 </v>
   <v>       0.00118411      -0.01156857      -0.00582139 </v>
   <v>      -0.02114919       0.00928123       0.01811663 </v>
   <v>       0.02012503      -0.00107558      -0.01057583 </v>
   <v>       0.00852010       0.00004817       0.03209817 </v>
   <v>       0.00494398       0.00011933      -0.00204550 </v>
   <v>      -0.00078106      -0.00201897      -0.00171272 </v>
   <v>      -0.00212590       0.00330993      -0.00313617 </v>
   <v>      -0.00257399       0.00366076      -0.00753104 </v>
   <v>       0.01236453      -0.00827876       0.00411730 </v>
   <v>       0.00820008      -0.00739435      -0.01186609 </v>
   <v>      -0.00203361       0.00133738       0.01538146 </v>
   <v>      -0.00212072      -0.00228058       0.00400289 </v>
   <v>      -0.01018766       0.00798517       0.00032291 </v>
   <v>       0.00012019       0.00959156       0.00343971 </v>
   <v>      -0.00297233       0.00378154      -0.01071006 </v>
   <v>       0.00095649      -0.00017607       0.00629482 </v>
   <v>      -0.00456246       0.00324438      -0.00417934 </v>
   <v>      -0.00372949      -0.00342213       0.00799212 </v>
   <v>       0.00564919       0.01035801      -0.00446451 </v>
   <v>       0.00875442       0.00460667      -0.00663740 </v>
   <v>       0.00554729       0.01196545      -0.00819830 </v>
   <v>       0.01229258      -0.00140926       0.00086393 </v>
   <v>       0.00474866       0.00658733      -0.00737020 </v>
   <v>       0.00735934      -0.01143951      -0.00076153 </v>
   <v>       0.00020351       0.00172562      -0.01241920 </v>
   <v>       0.00616846       0.00538685       0.00040617 </v>
  </varray>
  <varray name="stress" >
   <v>      -0.01508124       0.02491363       0.01639667 </v>
   <v>       0.02491440      -0.13057527       0.01242351 </v>
   <v>       0.01639642       0.01242341      -0.11470780 </v>
  </varray>
  <energy>
   <i name="e_fr_energy">  -1118.63066818 </i>
   <i name="e_wo_entrp">  -1118.63066818 </i>
   <i name="e_0_energy">     -0.00000000 </i>
  </energy>
  <time name="totalsc"> 1971.19 1973.73</time>
 </calculation>
 <calculation>
  <scstep>
   <time name="dav">  588.41  588.51</time>
   <time name="total">  595.62  595.79</time>
   <energy>
    <i name="alphaZ">   5604.60458106 </i>
    <i name="ewald"> -60721.30554937 </i>
    <i name="hartreedc"> -16762.31407387 </i>
    <i name="XCdc">   2960.76550438 </i>
    <i name="pawpsdc"> 112760.77413476 </i>
    <i name="pawaedc">-111658.84562404 </i>
    <i name="eentropy">     -0.00000000 </i>
    <i name="bandstr">  -7085.75757457 </i>
    <i name="atom">  73783.44779670 </i>
    <i name="e_fr_energy">  -1118.63080496 </i>
    <i name="e_wo_entrp">  -1118.63080496 </i>
    <i name="e_0_energy">  -1118.63080496 </i>
   </energy>
  </scstep>
  <scstep>
   <time name="diag">   64.81   64.84</time>
   <time name="diis">  104.33  104.36</time>
   <time name="orth">   33.52   33.52</time>
   <time name="total">  209.93  210.00</time>
   <energy>
    <i name="e_fr_energy">  -1118.63154368 </i>
    <i name="e_wo_entrp">  -1118.63154368 </i>
    <i name="e_0_energy">  -1118.63154368 </i>
   </energy>
  </scstep>
  <scstep>
   <time name="diag">   64.78   64.79</time>
   <time name="diis">   88.77   88.78</time>
   <time name="orth">   33.53   33.53</time>
   <time name="total">  194.35  194.42</time>
   <energy>
    <i name="e_fr_energy">  -1118.63151749 </i>
    <i name="e_wo_entrp">  -1118.63151749 </i>
    <i name="e_0_energy">  -1118.63151749 </i>
   </energy>
  </scstep>
  <scstep>
   <time name="diag">   64.78   64.79</time>
   <time name="diis">   67.16   67.19</time>
   <time name="orth">   33.51   33.52</time>
   <time name="total">  172.71  172.81</time>
   <energy>
    <i name="e_fr_energy">  -1118.63145973 </i>
    <i name="e_wo_entrp">  -1118.63145973 </i>
    <i name="e_0_energy">  -1118.63145973 </i>
   </energy>
  </scstep>
  <scstep>
   <time name="diag">   64.75   64.77</time>
   <time name="diis">   63.83   63.85</time>
   <time name="orth">   33.53   33.53</time>
   <time name="total">  169.35  169.49</time>
   <energy>
    <i name="e_fr_energy">  -1118.63145173 </i>
    <i name="e_wo_entrp">  -1118.63145173 </i>
    <i name="e_0_energy">  -1118.63145173 </i>
   </energy>
  </scstep>
  <scstep>
   <time name="diag">   64.78   64.79</time>
   <time name="diis">   63.10   63.10</time>
   <time name="orth">   33.53   33.53</time>
   <time name="total">  168.68  168.73</time>
   <energy>
    <i name="e_fr_energy">  -1118.63145445 </i>
    <i name="e_wo_entrp">  -1118.63145445 </i>
    <i name="e_0_energy">  -1118.63145445 </i>
   </energy>
  </scstep>
  <scstep>
   <time name="diag">   65.04   65.06</time>
   <time name="diis">   62.61   62.63</time>
   <time name="orth">   33.59   33.59</time>
   <time name="total">  168.47  168.58</time>
   <energy>
    <i name="e_fr_energy">  -1118.63145663 </i>
    <i name="e_wo_entrp">  -1118.63145663 </i>
    <i name="e_0_energy">  -1118.63145663 </i>
   </energy>
  </scstep>
  <scstep>
   <time name="diag">   64.99   65.00</time>
   <time name="diis">   61.00   61.00</time>
   <time name="orth">   33.58   33.58</time>
   <time name="total">  160.62  160.68</time>
   <energy>
    <i name="alphaZ">   5604.60458106 </i>
    <i name="ewald"> -60721.30554937 </i>
    <i name="hartreedc"> -16760.90129000 </i>
    <i name="XCdc">   2960.66702799 </i>
    <i name="pawpsdc"> 112772.23257893 </i>
    <i name="pawaedc">-111670.32985484 </i>
    <i name="eentropy">     -0.00000000 </i>
    <i name="bandstr">  -7087.04674860 </i>
    <i name="atom">  73783.44779670 </i>
    <i name="e_fr_energy">  -1118.63145813 </i>
    <i name="e_wo_entrp">  -1118.63145813 </i>
    <i name="e_0_energy">  -1118.63145813 </i>
   </energy>
  </scstep>
  <structure>
   <crystal>
    <varray name="basis" >
     <v>      11.23021335      -0.00686078       0.00648542 </v>
     <v>      -0.00671928      11.24282463      -0.01234143 </v>
     <v>       0.00920705      -0.01755975      15.94805348 </v>
    </varray>
    <i name="volume">   2013.58653847 </i>
    <varray name="rec_basis" >
     <v>       0.08904557       0.00005316      -0.00005135 </v>
     <v>       0.00005428       0.08894576       0.00009790 </v>
     <v>      -0.00003617       0.00006881       0.06270367 </v>
    </varray>
   </crystal>
   <varray name="positions" >
    <v>       0.00225177       0.26367219       0.13162872 </v>
    <v>       0.00054905       0.25677995       0.62415859 </v>
    <v>       0.00554087       0.72125330       0.12830540 </v>
    <v>       0.00081187       0.74452169       0.62462783 </v>
    <v>       0.49139358       0.23729404       0.12805077 </v>
    <v>       0.50034650       0.25060962       0.62510532 </v>
    <v>       0.50182682       0.75683418       0.12388758 </v>
    <v>       0.50011714       0.75099620       0.62656695 </v>
    <v>       0.99797099       0.25800797       0.38153346 </v>
    <v>       0.00618145       0.26407329       0.86108661 </v>
    <v>       0.99908900       0.74322284       0.37909536 </v>
    <v>       0.00237485       0.73438571       0.86478976 </v>
    <v>       0.49933489       0.24562328       0.38058377 </v>
    <v>       0.49570316       0.24656183       0.86713869 </v>
    <v>       0.50480794       0.75217410       0.38240091 </v>
    <v>       0.49840343       0.75439439       0.86716352 </v>
    <v>       0.26850674       0.00108684       0.12775953 </v>
    <v>       0.25193848       0.00100699       0.62676526 </v>
    <v>       0.24125429       0.49683462       0.12930759 </v>
    <v>       0.24665155       0.50098668       0.62830899 </v>
    <v>       0.73484657       0.99835979       0.12473491 </v>
    <v>       0.74741537       0.00053035       0.62293093 </v>
    <v>       0.76341018       0.50335281       0.12502662 </v>
    <v>       0.75276473       0.50121233       0.62469914 </v>
    <v>       0.25538689       0.00350453       0.38160296 </v>
    <v>       0.25684609       0.00238988       0.86666146 </v>
    <v>       0.24272342       0.49640869       0.38059833 </v>
    <v>       0.24609426       0.50416506       0.86320841 </v>
    <v>       0.74451401       0.99832955       0.38377653 </v>
    <v>       0.73708989       0.00281897       0.86792806 </v>
    <v>       0.75749125       0.50242514       0.38155975 </v>
    <v>       0.75513916       0.50242952       0.86789971 </v>
    <v>       0.99520958       0.96930110       0.00590846 </v>
    <v>       0.99855222       0.99815903       0.49765003 </v>
    <v>       0.00066183       0.49717122       0.99786466 </v>
    <v>       0.99784284       0.50064464       0.50086981 </v>
    <v>       0.50223081       0.99974530       0.50193232 </v>
    <v>       0.49818444       0.51065071       0.99995851 </v>
    <v>       0.50128704       0.50106769       0.49984362 </v>
    <v>       0.25811957       0.26514636       0.99775650 </v>
    <v>       0.25056915       0.25038806       0.50296171 </v>
    <v>       0.25381652       0.74695168       0.99710363 </v>
    <v>       0.25047507       0.75070871       0.50221807 </v>
    <v>       0.73021710       0.26080876       0.00173515 </v>
    <v>       0.74359272       0.74764188       0.99853470 </v>
    <v>       0.24922398       0.24716200       0.25182146 </v>
    <v>       0.75051284       0.24908849       0.25154353 </v>
    <v>       0.75126396       0.25167527       0.74746649 </v>
    <v>       0.75300061       0.74702023       0.25017436 </v>
    <v>       0.75171346       0.75066578       0.74846901 </v>
    <v>       0.98991457       0.00814322       0.25106208 </v>
    <v>       0.00130947       0.00212960       0.74376809 </v>
    <v>       0.50283328       0.99867795       0.25122940 </v>
    <v>       0.49670807       0.00086063       0.74982169 </v>
    <v>       0.51064011       0.49211207       0.24718421 </v>
    <v>       0.49896157       0.50038215       0.74869257 </v>
    <v>       0.49666911       0.99777139       0.99778690 </v>
    <v>       0.74906017       0.25074847       0.49991375 </v>
    <v>       0.75184115       0.75128559       0.50089071 </v>
    <v>       0.24912637       0.25156088       0.74814947 </v>
    <v>       0.25377543       0.74760520       0.25110809 </v>
    <v>       0.24799481       0.75110430       0.74882191 </v>
    <v>       0.99934514       0.49491645       0.25330791 </v>
    <v>       0.00223276       0.50059174       0.74631579 </v>
    <v>       0.13180655       0.10585767       0.24907109 </v>
    <v>       0.11359742       0.13251225       0.74540464 </v>
    <v>       0.13807041       0.62915098       0.25003659 </v>
    <v>       0.11826910       0.63431474       0.74679693 </v>
    <v>       0.61458018       0.13601191       0.24497337 </v>
    <v>       0.61575045       0.13500035       0.75028676 </v>
    <v>       0.60965237       0.63983332       0.24871353 </v>
    <v>       0.61743526       0.63405170       0.74764535 </v>
    <v>       0.37721673       0.37342007       0.24602951 </v>
    <v>       0.38653888       0.36836711       0.75398065 </v>
    <v>       0.37822728       0.86228960       0.25029640 </v>
    <v>       0.38130705       0.86920663       0.75105662 </v>
    <v>       0.88058883       0.36168762       0.25071019 </v>
    <v>       0.88019243       0.36784621       0.74970992 </v>
    <v>       0.91494634       0.85711397       0.23784570 </v>
    <v>       0.88318713       0.87231071       0.76644648 </v>
    <v>       0.37287915       0.11895334       0.24859905 </v>
    <v>       0.36724633       0.11757912       0.74930803 </v>
    <v>       0.37020822       0.61698414       0.74988394 </v>
    <v>       0.86155460       0.10886149       0.25711581 </v>
    <v>       0.86647308       0.11582678       0.75478569 </v>
    <v>       0.86583429       0.61435597       0.24870047 </v>
    <v>       0.86739024       0.62033191       0.75013546 </v>
    <v>       0.12705970       0.36864427       0.25048759 </v>
    <v>       0.13388050       0.38302762       0.74919109 </v>
    <v>       0.12804360       0.88809552       0.76063275 </v>
    <v>       0.63482267       0.38442450       0.23522359 </v>
    <v>       0.63461404       0.38414294       0.75324686 </v>
    <v>       0.64210501       0.88893523       0.24957083 </v>
    <v>       0.63247163       0.88417113       0.75051949 </v>
    <v>       0.35387164       0.40012096       0.00104196 </v>
    <v>       0.36328614       0.38758158       0.49584262 </v>
    <v>       0.34815511       0.89155023       0.00029577 </v>
    <v>       0.36379826       0.88757006       0.49709402 </v>
    <v>       0.85732167       0.38482895       0.00100314 </v>
    <v>       0.86527931       0.38497304       0.49725653 </v>
    <v>       0.84528829       0.90254249       0.99458299 </v>
    <v>       0.86570049       0.88847125       0.49723203 </v>
    <v>       0.13681132       0.11163903       0.50121385 </v>
    <v>       0.14609407       0.59966436       0.00407784 </v>
    <v>       0.13815262       0.61406994       0.49898756 </v>
    <v>       0.64177616       0.11073114       0.00160127 </v>
    <v>       0.63444791       0.11431593       0.50022077 </v>
    <v>       0.64337512       0.60275506       0.00804870 </v>
    <v>       0.63481651       0.61455643       0.49637192 </v>
    <v>       0.10080523       0.34294618       0.00076029 </v>
    <v>       0.11499217       0.36299559       0.49762951 </v>
    <v>       0.09965792       0.84334608       0.00502649 </v>
    <v>       0.11422446       0.86217102       0.49669896 </v>
    <v>       0.59781851       0.36004096       0.01470582 </v>
    <v>       0.61083339       0.36745224       0.49383993 </v>
    <v>       0.60557087       0.85331097       0.99960691 </v>
    <v>       0.61401316       0.86599986       0.49953201 </v>
    <v>       0.37542480       0.13634278       0.00276624 </v>
    <v>       0.38656099       0.13623335       0.49831623 </v>
    <v>       0.39711917       0.64968049       0.99809186 </v>
    <v>       0.38676591       0.63885594       0.50110695 </v>
    <v>       0.88911908       0.13324028       0.49313170 </v>
    <v>       0.89170423       0.63885923       0.00097062 </v>
    <v>       0.88680443       0.63519393       0.49888080 </v>
    <v>       0.00435948       0.03224983       0.11563900 </v>
    <v>       0.99553961       0.99171737       0.62516474 </v>
    <v>       0.00109246       0.49615936       0.12546321 </v>
    <v>       0.99927870       0.49873013       0.62213658 </v>
    <v>       0.49813407       0.99629455       0.12593693 </v>
    <v>       0.49876461       0.99925426       0.62463563 </v>
    <v>       0.47273013       0.52445533       0.13118135 </v>
    <v>       0.50149349       0.49654824       0.62393094 </v>
    <v>       0.01151323       0.98635586       0.36929983 </v>
    <v>       0.02569333       0.05487354       0.91079734 </v>
    <v>       0.00162471       0.50029726       0.37490532 </v>
    <v>       0.00206891       0.50022332       0.87706992 </v>
    <v>       0.50213659       0.00066193       0.37369643 </v>
    <v>       0.49866231       0.00214662       0.87467732 </v>
    <v>       0.48645257       0.51134303       0.36669830 </v>
    <v>       0.50527597       0.50184286       0.87974731 </v>
    <v>       0.24990237       0.24515261       0.37333851 </v>
    <v>       0.24573071       0.24382379       0.87878371 </v>
    <v>       0.25350241       0.74925223       0.36723067 </v>
    <v>       0.24624182       0.74537485       0.87849164 </v>
    <v>       0.74140709       0.25262289       0.37032180 </v>
    <v>       0.75072823       0.24665816       0.88090517 </v>
    <v>       0.75702560       0.75566337       0.37043683 </v>
    <v>       0.74331412       0.74082852       0.87744802 </v>
    <v>       0.24154167       0.24069632       0.12246716 </v>
    <v>       0.25392521       0.25275043       0.62276402 </v>
    <v>       0.24995210       0.75234307       0.13369826 </v>
    <v>       0.24821047       0.75784722       0.62294778 </v>
    <v>       0.77059462       0.23142279       0.12050707 </v>
    <v>       0.75079654       0.24928829       0.62546956 </v>
    <v>       0.75292805       0.75271955       0.12411007 </v>
    <v>       0.75617842       0.75692140       0.62700388 </v>
   </varray>
  </structure>
  <varray name="forces" >
   <v>      -0.00767845      -0.01042788      -0.00783044 </v>
   <v>       0.00080273       0.00180225       0.00053764 </v>
   <v>      -0.00784544       0.01239286      -0.01027905 </v>
   <v>       0.00670590      -0.00112778       0.00080254 </v>
   <v>       0.00184317       0.00233000       0.00134617 </v>
   <v>      -0.00142221       0.00575804       0.00488393 </v>
   <v>       0.00284567      -0.00088000      -0.00193815 </v>
   <v>      -0.00550062      -0.00674488       0.00375702 </v>
   <v>       0.00342713      -0.00437698      -0.00956922 </v>
   <v>       0.00019130      -0.00522598       0.00554811 </v>
   <v>       0.00461686      -0.00755667       0.00282856 </v>
   <v>       0.00876363       0.00118809       0.00776329 </v>
   <v>      -0.00221073       0.00342508      -0.00170966 </v>
   <v>      -0.00100198      -0.00063849       0.00367286 </v>
   <v>       0.00174079       0.00420878      -0.00054647 </v>
   <v>      -0.00217272      -0.00588719       0.00686436 </v>
   <v>      -0.00396969       0.00029704      -0.00070802 </v>
   <v>       0.00241462      -0.00630742       0.00521347 </v>
   <v>       0.00193935      -0.00775331      -0.00151991 </v>
   <v>       0.00500441       0.00123829       0.00482666 </v>
   <v>       0.00277202      -0.00250138       0.00381906 </v>
   <v>      -0.00030529      -0.00449153      -0.00362717 </v>
   <v>       0.00009903       0.01069851       0.00059458 </v>
   <v>      -0.00150479       0.00011617       0.00297471 </v>
   <v>      -0.00500191       0.00481892      -0.00014399 </v>
   <v>       0.00287324      -0.00069552       0.00719069 </v>
   <v>      -0.00640413       0.00568954      -0.00107683 </v>
   <v>      -0.00150080       0.00552415       0.00316827 </v>
   <v>      -0.00414599       0.00679621      -0.00686629 </v>
   <v>      -0.00603299      -0.00194252      -0.00018733 </v>
   <v>      -0.00382826      -0.00426982      -0.00436032 </v>
   <v>      -0.00076560       0.00161715       0.00395876 </v>
   <v>      -0.02357012      -0.01446297       0.04264050 </v>
   <v>       0.00960090      -0.00400951      -0.00773860 </v>
   <v>      -0.02405085       0.00729529      -0.00076205 </v>
   <v>       0.01998116       0.00003864       0.00320131 </v>
   <v>      -0.00985003      -0.00097413       0.00592404 </v>
   <v>       0.00523916      -0.00584273      -0.00859986 </v>
   <v>      -0.01030023       0.00948279       0.01702588 </v>
   <v>      -0.00017970      -0.01195317      -0.00389654 </v>
   <v>      -0.00547773       0.00847680       0.00558918 </v>
   <v>      -0.00113351       0.01664449      -0.00186165 </v>
   <v>      -0.01329766      -0.01574857      -0.00085168 </v>
   <v>       0.01359163       0.01134367       0.00774718 </v>
   <v>       0.01367825       0.00446581       0.01174771 </v>
   <v>      -0.00002661      -0.00397933       0.00395168 </v>
   <v>       0.01180364       0.00635271      -0.01846071 </v>
   <v>       0.00007222      -0.00110304       0.00791444 </v>
   <v>       0.00105803      -0.00110795      -0.04814520 </v>
   <v>       0.00160257      -0.01763294       0.01744481 </v>
   <v>      -0.00198140       0.00979113      -0.00763714 </v>
   <v>       0.00565817       0.00381227       0.00147747 </v>
   <v>       0.00126633      -0.00312468      -0.01374768 </v>
   <v>      -0.01836467       0.00217544      -0.00338648 </v>
   <v>       0.02069224       0.00288205      -0.00367303 </v>
   <v>      -0.03599756       0.00955206      -0.00312235 </v>
   <v>      -0.00380496       0.00083759      -0.00080426 </v>
   <v>      -0.00421884       0.00218681      -0.00684218 </v>
   <v>      -0.00192648      -0.00422641       0.00166193 </v>
   <v>       0.00260805       0.00467693       0.00234350 </v>
   <v>       0.00067749       0.00427345       0.00047811 </v>
   <v>       0.00853589      -0.00768100      -0.00155623 </v>
   <v>      -0.00482326       0.00540897      -0.00584214 </v>
   <v>       0.00175169       0.00614953       0.00434837 </v>
   <v>       0.00796203       0.00505671      -0.00206674 </v>
   <v>      -0.01023185      -0.00925310      -0.01092729 </v>
   <v>      -0.00420091      -0.00161520      -0.00008785 </v>
   <v>      -0.00649905       0.00029927       0.00083061 </v>
[...]
       <r>   -16.3554     0.0000    32.0000 </r>
       <r>   -16.2027     0.0000    32.0000 </r>
       <r>   -16.0500     0.0000    32.0000 </r>
       <r>   -15.8973     0.0000    32.0000 </r>
       <r>   -15.7446     0.0000    32.0000 </r>
       <r>   -15.5919     0.0000    32.0000 </r>
       <r>   -15.4392     0.0025    32.0004 </r>
       <r>   -15.2865     6.1370    32.9375 </r>
       <r>   -15.1338    11.8061    34.7403 </r>
       <r>   -14.9811    30.4599    39.3915 </r>
       <r>   -14.8284    47.5937    46.6591 </r>
       <r>   -14.6757    50.6473    54.3929 </r>
       <r>   -14.5230    38.4478    60.2639 </r>
       <r>   -14.3703    38.0833    66.0792 </r>
       <r>   -14.2176    46.7072    73.2113 </r>
       <r>   -14.0649    85.6852    86.2954 </r>
       <r>   -13.9122   110.9209   103.2330 </r>
       <r>   -13.7595    87.8743   116.6514 </r>
       <r>   -13.6068    38.2768   122.4963 </r>
       <r>   -13.4541     8.9128   123.8573 </r>
       <r>   -13.3014     0.9348   124.0000 </r>
       <r>   -13.1487     0.0000   124.0000 </r>
       <r>   -12.9960     0.0000   124.0000 </r>
       <r>   -12.8433     0.0318   124.0049 </r>
       <r>   -12.6906    16.6309   126.5444 </r>
       <r>   -12.5379    80.4701   138.8321 </r>
       <r>   -12.3852   165.2705   164.0689 </r>
       <r>   -12.2325   133.0887   184.3915 </r>
       <r>   -12.0798   121.6563   202.9684 </r>
       <r>   -11.9271    77.8426   214.8550 </r>
       <r>   -11.7744    24.8561   218.6505 </r>
       <r>   -11.6217     8.5534   219.9566 </r>
       <r>   -11.4690     0.2844   220.0000 </r>
       <r>   -11.3163     0.0000   220.0000 </r>
       <r>   -11.1636     0.0000   220.0000 </r>
       <r>   -11.0109     0.0000   220.0000 </r>
       <r>   -10.8582     0.0000   220.0000 </r>
       <r>   -10.7055     0.0000   220.0000 </r>
       <r>   -10.5528     0.0000   220.0000 </r>
       <r>   -10.4001     0.0000   220.0000 </r>
       <r>   -10.2474     0.0000   220.0000 </r>
       <r>   -10.0947     0.0000   220.0000 </r>
       <r>    -9.9420     0.0000   220.0000 </r>
       <r>    -9.7893     0.0000   220.0000 </r>
       <r>    -9.6366     0.0000   220.0000 </r>
       <r>    -9.4839     0.0000   220.0000 </r>
       <r>    -9.3312     0.0000   220.0000 </r>
       <r>    -9.1785     0.0000   220.0000 </r>
       <r>    -9.0258     0.0000   220.0000 </r>
       <r>    -8.8731     0.0000   220.0000 </r>
       <r>    -8.7204     0.0000   220.0000 </r>
       <r>    -8.5677     0.0000   220.0000 </r>
       <r>    -8.4150     0.0000   220.0000 </r>
       <r>    -8.2623     0.0000   220.0000 </r>
       <r>    -8.1096     0.0000   220.0000 </r>
       <r>    -7.9569     0.0000   220.0000 </r>
       <r>    -7.8042     0.0000   220.0000 </r>
       <r>    -7.6515     0.0000   220.0000 </r>
       <r>    -7.4988     0.0000   220.0000 </r>
       <r>    -7.3461     0.0000   220.0000 </r>
       <r>    -7.1934     0.0000   220.0000 </r>
       <r>    -7.0407     0.0000   220.0000 </r>
       <r>    -6.8880     0.0000   220.0000 </r>
       <r>    -6.7353     0.0000   220.0000 </r>
       <r>    -6.5826     0.0000   220.0000 </r>
       <r>    -6.4299     0.0000   220.0000 </r>
       <r>    -6.2772     0.0000   220.0000 </r>
       <r>    -6.1245     0.0000   220.0000 </r>
       <r>    -5.9718     0.0000   220.0000 </r>
       <r>    -5.8191     0.0000   220.0000 </r>
       <r>    -5.6664     0.0000   220.0000 </r>
       <r>    -5.5137     0.0000   220.0000 </r>
       <r>    -5.3610     0.0000   220.0000 </r>
       <r>    -5.2083     0.0000   220.0000 </r>
       <r>    -5.0556     0.0000   220.0000 </r>
       <r>    -4.9029     0.0000   220.0000 </r>
       <r>    -4.7502     0.0000   220.0000 </r>
       <r>    -4.5975     0.0000   220.0000 </r>
       <r>    -4.4448     0.0000   220.0000 </r>
       <r>    -4.2921     0.0000   220.0000 </r>
       <r>    -4.1394     0.0000   220.0000 </r>
       <r>    -3.9867     0.0001   220.0000 </r>
       <r>    -3.8340     3.7866   220.5782 </r>
       <r>    -3.6813     2.7620   221.0000 </r>
       <r>    -3.5286     0.0000   221.0000 </r>
       <r>    -3.3759     0.0000   221.0000 </r>
       <r>    -3.2232     0.0000   221.0000 </r>
       <r>    -3.0705     4.6362   221.7080 </r>
       <r>    -2.9178    15.1221   224.0171 </r>
       <r>    -2.7651     6.3447   224.9859 </r>
       <r>    -2.6124     0.0922   225.0000 </r>
       <r>    -2.4597     0.0710   225.0108 </r>
       <r>    -2.3070     7.3666   226.1357 </r>
       <r>    -2.1543    29.5714   230.6513 </r>
       <r>    -2.0016    24.0567   234.3247 </r>
       <r>    -1.8489    21.3652   237.5872 </r>
       <r>    -1.6962    47.3986   244.8249 </r>
       <r>    -1.5435    57.3828   253.5873 </r>
       <r>    -1.3908    56.0922   262.1525 </r>
       <r>    -1.2381    65.7999   272.2002 </r>
       <r>    -1.0854    74.0063   283.5009 </r>
       <r>    -0.9327    73.2524   294.6865 </r>
       <r>    -0.7800    77.2246   306.4787 </r>
       <r>    -0.6273    92.4843   320.6010 </r>
       <r>    -0.4746   105.7159   336.7438 </r>
       <r>    -0.3219    92.0552   350.8006 </r>
       <r>    -0.1692    62.0786   360.2800 </r>
       <r>    -0.0165    51.1411   368.0892 </r>
       <r>     0.1362    50.0021   375.7245 </r>
       <r>     0.2889    44.1785   382.4706 </r>
       <r>     0.4416    50.5240   390.1856 </r>
       <r>     0.5943    53.3927   398.3386 </r>
       <r>     0.7470    52.9590   406.4254 </r>
       <r>     0.8997    51.8960   414.3499 </r>
       <r>     1.0524    61.3898   423.7242 </r>
       <r>     1.2051    73.0635   434.8809 </r>
       <r>     1.3578    79.0844   446.9571 </r>
       <r>     1.5105    87.2644   460.2823 </r>
       <r>     1.6632    90.3107   474.0728 </r>
       <r>     1.8159    56.7768   482.7426 </r>
       <r>     1.9686    52.0323   490.6879 </r>
       <r>     2.1213    27.9540   494.9565 </r>
       <r>     2.2740    20.9944   498.1623 </r>
       <r>     2.4267    11.9914   499.9934 </r>
       <r>     2.5794     0.0434   500.0000 </r>
       <r>     2.7321     0.0000   500.0000 </r>
       <r>     2.8848     0.0000   500.0000 </r>
       <r>     3.0375     0.0000   500.0000 </r>
       <r>     3.1902     0.0000   500.0000 </r>
       <r>     3.3429     0.0000   500.0000 </r>
       <r>     3.4956     0.2102   500.0321 </r>
       <r>     3.6483     5.8985   500.9328 </r>
       <r>     3.8010     0.4400   501.0000 </r>
       <r>     3.9537     0.0000   501.0000 </r>
       <r>     4.1064     0.0000   501.0000 </r>
       <r>     4.2591     0.0000   501.0000 </r>
       <r>     4.4118     0.0015   501.0002 </r>
       <r>     4.5645     8.4643   502.2927 </r>
       <r>     4.7172    30.0357   506.8792 </r>
       <r>     4.8699    35.5328   512.3050 </r>
       <r>     5.0226    35.6889   517.7547 </r>
       <r>     5.1753    43.7989   524.4428 </r>
       <r>     5.3280    62.8081   534.0336 </r>
       <r>     5.4807    76.1116   545.6558 </r>
       <r>     5.6334    68.2508   556.0777 </r>
       <r>     5.7861    73.0465   567.2318 </r>
       <r>     5.9388    74.5303   578.6126 </r>
       <r>     6.0915    85.5976   591.6833 </r>
       <r>     6.2442    71.6984   602.6317 </r>
       <r>     6.3969    54.3507   610.9310 </r>
       <r>     6.5496    25.4584   614.8185 </r>
       <r>     6.7023    18.8366   617.6948 </r>
       <r>     6.8550    16.7689   620.2555 </r>
       <r>     7.0077    19.5282   623.2374 </r>
       <r>     7.1604    20.4478   626.3598 </r>
       <r>     7.3131    19.9589   629.4075 </r>
       <r>     7.4658    15.4283   631.7634 </r>
       <r>     7.6185    18.0707   634.5228 </r>
       <r>     7.7712    16.7662   637.0830 </r>
       <r>     7.9239    19.8109   640.1081 </r>
       <r>     8.0766    21.2980   643.3603 </r>
       <r>     8.2293    28.9678   647.7837 </r>
       <r>     8.3820    27.9146   652.0462 </r>
       <r>     8.5347    21.8014   655.3753 </r>
       <r>     8.6874    26.3457   659.3982 </r>
       <r>     8.8401    25.1651   663.2409 </r>
       <r>     8.9928    33.4438   668.3478 </r>
       <r>     9.1455    40.3910   674.5155 </r>
       <r>     9.2982    37.8554   680.2960 </r>
       <r>     9.4509    38.6901   686.2040 </r>
       <r>     9.6036    47.4513   693.4498 </r>
       <r>     9.7563    53.5056   701.6201 </r>
       <r>     9.9090    63.4283   711.3055 </r>
       <r>    10.0617    63.2144   720.9584 </r>
       <r>    10.2144    61.9451   730.4174 </r>
       <r>    10.3671    55.7539   738.9310 </r>
       <r>    10.5198    57.6358   747.7319 </r>
       <r>    10.6725    60.0602   756.9031 </r>
       <r>    10.8252    52.8106   764.9673 </r>
       <r>    10.9779    19.8446   767.9976 </r>
       <r>    11.1306     0.0160   768.0000 </r>
       <r>    11.2833     0.0000   768.0000 </r>
       <r>    11.4360     0.0000   768.0000 </r>
       <r>    11.5887     0.0000   768.0000 </r>
       <r>    11.7414     0.0000   768.0000 </r>
       <r>    11.8941     0.0000   768.0000 </r>
       <r>    12.0468     0.0000   768.0000 </r>
       <r>    12.1995     0.0000   768.0000 </r>
       <r>    12.3522     0.0000   768.0000 </r>
       <r>    12.5049     0.0000   768.0000 </r>
       <r>    12.6576     0.0000   768.0000 </r>
       <r>    12.8103     0.0000   768.0000 </r>
       <r>    12.9630     0.0000   768.0000 </r>
      </set>
     </set>
    </array>
   </total>
  </dos>
 </calculation>
 <structure name="finalpos" >
  <crystal>
   <varray name="basis" >
    <v>      11.23108988      -0.00642213       0.00673109 </v>
    <v>      -0.00628093      11.24248834      -0.01265086 </v>
    <v>       0.00955553      -0.01799730      15.94835941 </v>
   </varray>
   <i name="volume">   2013.72201039 </i>
   <varray name="rec_basis" >
    <v>       0.08903861       0.00004968      -0.00005329 </v>
    <v>       0.00005080       0.08894842       0.00010035 </v>
    <v>      -0.00003754       0.00007054       0.06270248 </v>
   </varray>
  </crystal>
  <varray name="positions" >
   <v>       0.00213815       0.26346116       0.13146948 </v>
   <v>       0.00042988       0.25675884       0.62413845 </v>
   <v>       0.00543800       0.72156812       0.12816379 </v>
   <v>       0.00086201       0.74459160       0.62463763 </v>
   <v>       0.49140799       0.23740384       0.12810839 </v>
   <v>       0.50042928       0.25071369       0.62516330 </v>
   <v>       0.50182017       0.75672268       0.12381865 </v>
   <v>       0.50009920       0.75091682       0.62656547 </v>
   <v>       0.99803085       0.25786544       0.38138514 </v>
   <v>       0.00616440       0.26387456       0.86117217 </v>
   <v>       0.99910994       0.74304881       0.37914682 </v>
   <v>       0.00263286       0.73451131       0.86489069 </v>
   <v>       0.49929282       0.24574316       0.38056940 </v>
   <v>       0.49575548       0.24654935       0.86722206 </v>
   <v>       0.50494517       0.75232194       0.38240625 </v>
   <v>       0.49839333       0.75426677       0.86733924 </v>
   <v>       0.26841526       0.00111279       0.12774669 </v>
   <v>       0.25193424       0.00084868       0.62681037 </v>
   <v>       0.24132297       0.49657573       0.12925865 </v>
   <v>       0.24672452       0.50097266       0.62838776 </v>
   <v>       0.73483043       0.99834420       0.12480541 </v>
   <v>       0.74746389       0.00033793       0.62282680 </v>
   <v>       0.76335869       0.50368011       0.12507659 </v>
   <v>       0.75273858       0.50116796       0.62474197 </v>
   <v>       0.25529369       0.00362894       0.38164845 </v>
   <v>       0.25681909       0.00238652       0.86682154 </v>
   <v>       0.24265401       0.49651994       0.38050552 </v>
   <v>       0.24595975       0.50430522       0.86340248 </v>
   <v>       0.74440145       0.99848936       0.38371728 </v>
   <v>       0.73688804       0.00276626       0.86783528 </v>
   <v>       0.75733547       0.50233504       0.38153358 </v>
   <v>       0.75500709       0.50247493       0.86789207 </v>
   <v>       0.99513746       0.96934011       0.00607555 </v>
   <v>       0.99852664       0.99811891       0.49755316 </v>
   <v>       0.00059509       0.49730072       0.99785049 </v>
   <v>       0.99789542       0.50055921       0.50089905 </v>
   <v>       0.50217084       0.99975268       0.50193651 </v>
   <v>       0.49824744       0.51057073       0.99991549 </v>
   <v>       0.50122520       0.50109902       0.49994455 </v>
   <v>       0.25819341       0.26512280       0.99772142 </v>
   <v>       0.25055830       0.25040749       0.50296583 </v>
   <v>       0.25383186       0.74707657       0.99715715 </v>
   <v>       0.25046704       0.75065323       0.50216173 </v>
   <v>       0.73026195       0.26092659       0.00172638 </v>
   <v>       0.74364943       0.74776816       0.99852058 </v>
   <v>       0.24917438       0.24726780       0.25190475 </v>
   <v>       0.75062739       0.24915299       0.25151166 </v>
   <v>       0.75125982       0.25158713       0.74744387 </v>
   <v>       0.75302326       0.74714279       0.25015928 </v>
   <v>       0.75165212       0.75060580       0.74847681 </v>
   <v>       0.99011228       0.00809537       0.25109772 </v>
   <v>       0.00117630       0.00212148       0.74362812 </v>
   <v>       0.50280735       0.99868711       0.25118796 </v>
   <v>       0.49657583       0.00085708       0.74977845 </v>
   <v>       0.51070274       0.49216264       0.24713708 </v>
   <v>       0.49866212       0.50041313       0.74875567 </v>
   <v>       0.49665527       0.99788860       0.99772690 </v>
   <v>       0.74897577       0.25073129       0.49980870 </v>
   <v>       0.75181661       0.75129724       0.50090646 </v>
   <v>       0.24906329       0.25160564       0.74816665 </v>
   <v>       0.25367857       0.74765257       0.25105841 </v>
   <v>       0.24803541       0.75110546       0.74877806 </v>
   <v>       0.99936868       0.49504432       0.25320634 </v>
   <v>       0.00212810       0.50065416       0.74638334 </v>
   <v>       0.13190131       0.10595378       0.24897034 </v>
   <v>       0.11347901       0.13244210       0.74513675 </v>
   <v>       0.13794456       0.62915121       0.25001638 </v>
   <v>       0.11820733       0.63436618       0.74680839 </v>
   <v>       0.61487149       0.13576976       0.24483445 </v>
   <v>       0.61571789       0.13492520       0.75023265 </v>
   <v>       0.60971307       0.63974489       0.24858754 </v>
   <v>       0.61742075       0.63405182       0.74742127 </v>
   <v>       0.37703871       0.37354439       0.24609874 </v>
   <v>       0.38646957       0.36827645       0.75415339 </v>
   <v>       0.37811128       0.86223527       0.25036198 </v>
   <v>       0.38150169       0.86894286       0.75116163 </v>
   <v>       0.88046248       0.36163630       0.25082378 </v>
   <v>       0.88026289       0.36773848       0.74976274 </v>
   <v>       0.91455272       0.85714651       0.23807857 </v>
   <v>       0.88320985       0.87227336       0.76653630 </v>
   <v>       0.37287550       0.11907412       0.24865954 </v>
   <v>       0.36705986       0.11739211       0.74922478 </v>
   <v>       0.37027234       0.61709638       0.75013962 </v>
   <v>       0.86212891       0.10917665       0.25738961 </v>
   <v>       0.86656476       0.11586261       0.75500876 </v>
   <v>       0.86579381       0.61436862       0.24863857 </v>
   <v>       0.86721565       0.62034807       0.75022535 </v>
   <v>       0.12700696       0.36876089       0.25046328 </v>
   <v>       0.13398294       0.38304259       0.74914199 </v>
   <v>       0.12785801       0.88794966       0.76037066 </v>
   <v>       0.63465653       0.38432368       0.23507937 </v>
   <v>       0.63451602       0.38385262       0.75315073 </v>
   <v>       0.64213416       0.88884983       0.24952362 </v>
   <v>       0.63252182       0.88408873       0.75048558 </v>
   <v>       0.35405927       0.39998987       0.00080988 </v>
   <v>       0.36342171       0.38747623       0.49563235 </v>
   <v>       0.34847026       0.89139422       0.00017456 </v>
   <v>       0.36385455       0.88737316       0.49694549 </v>
   <v>       0.85746284       0.38474251       0.00096418 </v>
   <v>       0.86525571       0.38483931       0.49710649 </v>
   <v>       0.84537759       0.90253301       0.99436332 </v>
   <v>       0.86577330       0.88838982       0.49703811 </v>
   <v>       0.13666292       0.11170241       0.50148027 </v>
   <v>       0.14592808       0.60002368       0.00420156 </v>
   <v>       0.13820209       0.61408458       0.49923950 </v>
   <v>       0.64152611       0.11081867       0.00172295 </v>
   <v>       0.63450214       0.11421192       0.50025978 </v>
   <v>       0.64329559       0.60279341       0.00812186 </v>
   <v>       0.63480085       0.61452764       0.49656208 </v>
   <v>       0.10121072       0.34350151       0.00072724 </v>
   <v>       0.11506431       0.36303471       0.49770938 </v>
   <v>       0.09982002       0.84366751       0.00511889 </v>
   <v>       0.11433460       0.86236878       0.49695499 </v>
   <v>       0.59786117       0.36011107       0.01482211 </v>
   <v>       0.61094475       0.36741715       0.49416424 </v>
   <v>       0.60567800       0.85340215       0.99962170 </v>
   <v>       0.61387722       0.86582211       0.49960098 </v>
   <v>       0.37552164       0.13632322       0.00261578 </v>
   <v>       0.38647305       0.13609305       0.49819769 </v>
   <v>       0.39691283       0.64938104       0.99798892 </v>
   <v>       0.38675355       0.63878743       0.50088391 </v>
   <v>       0.88898179       0.13305811       0.49280123 </v>
   <v>       0.89167441       0.63889442       0.00100963 </v>
   <v>       0.88690751       0.63523549       0.49878798 </v>
   <v>       0.00443088       0.03184071       0.11584318 </v>
   <v>       0.99494731       0.99178896       0.62509413 </v>
   <v>       0.00106066       0.49603435       0.12542906 </v>
   <v>       0.99909275       0.49842989       0.62218606 </v>
   <v>       0.49811035       0.99635419       0.12599858 </v>
   <v>       0.49857250       0.99925110       0.62456872 </v>
   <v>       0.47267855       0.52422107       0.13112083 </v>
   <v>       0.50095105       0.49667551       0.62402404 </v>
   <v>       0.01213227       0.98627215       0.36924718 </v>
   <v>       0.02612731       0.05517895       0.91120299 </v>
   <v>       0.00176033       0.50030445       0.37486569 </v>
   <v>       0.00212998       0.50025548       0.87704730 </v>
   <v>       0.50219760       0.00075099       0.37370513 </v>
   <v>       0.49868250       0.00221363       0.87467053 </v>
   <v>       0.48690739       0.51112134       0.36665307 </v>
   <v>       0.50562678       0.50171469       0.87972332 </v>
   <v>       0.24979525       0.24516718       0.37335372 </v>
   <v>       0.24557035       0.24360423       0.87877041 </v>
   <v>       0.25308521       0.74941601       0.36717720 </v>
   <v>       0.24606126       0.74566260       0.87857367 </v>
   <v>       0.74110849       0.25268902       0.37032402 </v>
   <v>       0.75068309       0.24661799       0.88092930 </v>
   <v>       0.75685064       0.75568530       0.37048287 </v>
   <v>       0.74312058       0.74074223       0.87743378 </v>
   <v>       0.24166437       0.24087714       0.12248435 </v>
   <v>       0.25425577       0.25287008       0.62272522 </v>
   <v>       0.25001518       0.75260728       0.13360573 </v>
   <v>       0.24860509       0.75781486       0.62290852 </v>
   <v>       0.77077695       0.23141602       0.12049626 </v>
   <v>       0.75113077       0.24901106       0.62545341 </v>
   <v>       0.75299857       0.75282777       0.12408135 </v>
   <v>       0.75645768       0.75716735       0.62695550 </v>
  </varray>
 </structure>
</modeling>
