<?xml version="1.0" encoding="ISO-8859-1"?>
<modeling>
 <generator>
  <i name="program" type="string">vasp </i>
  <i name="version" type="string">5.4.1  </i>
  <i name="subversion" type="string">05Feb16 (build Jan 25 2017 20:16:33) complex                          parallel </i>
  <i name="platform" type="string">BWXE6 </i>
  <i name="date" type="string">2019 06 20 </i>
  <i name="time" type="string">10:55:02 </i>
 </generator>
 <incar>
  <i type="string" name="SYSTEM"> STF</i>
  <i type="string" name="PREC">normal</i>
  <i type="string" name="ALGO"> Fast</i>
  <i type="int" name="ISPIN">     2</i>
  <i type="int" name="NELM">    40</i>
  <i type="int" name="NELMIN">     8</i>
  <i type="int" name="IBRION">     2</i>
  <i name="EDIFF">      0.00010000</i>
  <i name="EDIFFG">     -0.03000000</i>
  <i type="int" name="NSW">    30</i>
  <i type="int" name="ISIF">     3</i>
  <i name="ENCUT">    520.00000000</i>
  <i type="int" name="NBANDS">   768</i>
  <v name="MAGMOM">      0.60000000      0.60000000      0.60000000      0.60000000      0.60000000      0.60000000      0.60000000      0.60000000      0.60000000      0.60000000      0.60000000      0.60000000      0.60000000      0.60000000      0.60000000      0.60000000      0.60000000      0.60000000      0.60000000      0.60000000
      0.60000000      0.60000000      0.60000000      0.60000000      0.60000000      0.60000000      0.60000000      0.60000000      0.60000000      0.60000000      0.60000000      0.60000000      0.60000000      0.60000000      0.60000000      0.60000000      0.60000000      0.60000000      0.60000000      0.60000000
      0.60000000      0.60000000      0.60000000      0.60000000      0.60000000      0.60000000      0.60000000      0.60000000      0.60000000      0.60000000      0.60000000      0.60000000      0.60000000      0.60000000      0.60000000      0.60000000      0.60000000      0.60000000      0.60000000      0.60000000
      5.00000000      5.00000000      5.00000000      5.00000000      0.60000000      0.60000000      0.60000000      0.60000000      0.60000000      0.60000000      0.60000000      0.60000000      0.60000000      0.60000000      0.60000000      0.60000000      0.60000000      0.60000000      0.60000000      0.60000000
      0.60000000      0.60000000      0.60000000      0.60000000      0.60000000      0.60000000      0.60000000      0.60000000      0.60000000      0.60000000      0.60000000      0.60000000      0.60000000      0.60000000      0.60000000      0.60000000      0.60000000      0.60000000      0.60000000      0.60000000
      0.60000000      0.60000000      0.60000000      0.60000000      0.60000000      0.60000000      0.60000000      0.60000000      0.60000000      0.60000000      0.60000000      0.60000000      0.60000000      0.60000000      0.60000000      0.60000000      0.60000000      0.60000000      0.60000000      0.60000000
      0.60000000      0.60000000      0.60000000      0.60000000      0.60000000      0.60000000      0.60000000      0.60000000      0.60000000      0.60000000      0.60000000      0.60000000      0.60000000      0.60000000      0.60000000      0.60000000      0.60000000      0.60000000      0.60000000      0.60000000
      0.60000000      0.60000000      0.60000000      0.60000000      0.60000000      0.60000000      0.60000000      0.60000000      0.60000000      0.60000000      0.60000000      0.60000000      0.60000000      0.60000000      0.60000000      0.60000000      0.60000000      0.60000000</v>
  <i type="string" name="LREAL"> Auto</i>
  <i type="int" name="ISMEAR">     0</i>
  <i name="SIGMA">      0.05000000</i>
  <i type="int" name="LMAXMIX">     4</i>
  <v type="int" name="KPOINT_BSE">    -1     0     0     0</v>
  <i type="int" name="NELM">    40</i>
  <i type="logical" name="LDAU"> T  </i>
  <v type="int" name="LDAUTYPE">     2</v>
  <v type="int" name="LDAUL">     0     2     2     0</v>
  <v name="LDAUU">      0.00000000      3.00000000      5.00000000      0.00000000</v>
  <v name="LDAUJ">      0.00000000      0.00000000      0.00000000      0.00000000</v>
  <i type="int" name="LDAUPRINT">     1</i>
 </incar>
 <kpoints>
  <generation param="Monkhorst-Pack">
   <v type="int" name="divisions">       2        2        2 </v>
   <v name="usershift">      0.00000000       0.00000000       0.00000000 </v>
   <v name="genvec1">      0.50000000      -0.00000000       0.00000000 </v>
   <v name="genvec2">      0.00000000       0.50000000       0.00000000 </v>
   <v name="genvec3">     -0.00000000       0.00000000       0.50000000 </v>
   <v name="shift">      0.50000000       0.50000000       0.50000000 </v>
  </generation>
  <varray name="kpointlist" >
   <v>       0.25000000       0.25000000       0.25000000 </v>
   <v>      -0.25000000       0.25000000       0.25000000 </v>
   <v>       0.25000000      -0.25000000       0.25000000 </v>
   <v>      -0.25000000      -0.25000000       0.25000000 </v>
  </varray>
  <varray name="weights" >
   <v>       0.25000000 </v>
   <v>       0.25000000 </v>
   <v>       0.25000000 </v>
   <v>       0.25000000 </v>
  </varray>
 </kpoints>
 <parameters>
  <separator name="general" >
   <i type="string" name="SYSTEM">STF</i>
   <i type="logical" name="LCOMPAT"> F  </i>
  </separator>
  <separator name="electronic" >
   <i type="string" name="PREC">normal</i>
   <i name="ENMAX">    520.00000000</i>
   <i name="ENAUG">    605.39200000</i>
   <i name="EDIFF">      0.00010000</i>
   <i type="int" name="IALGO">    68</i>
   <i type="int" name="IWAVPR">    11</i>
   <i type="int" name="NBANDS">   768</i>
   <i name="NELECT">   1028.00000000</i>
   <i type="int" name="TURBO">     0</i>
   <i type="int" name="IRESTART">     0</i>
   <i type="int" name="NREBOOT">     0</i>
   <i type="int" name="NMIN">     0</i>
   <i name="EREF">      0.00000000</i>
   <separator name="electronic smearing" >
    <i type="int" name="ISMEAR">     0</i>
    <i name="SIGMA">      0.05000000</i>
    <i name="KSPACING">      0.50000000</i>
    <i type="logical" name="KGAMMA"> T  </i>
   </separator>
   <separator name="electronic projectors" >
    <i type="logical" name="LREAL"> T  </i>
    <v name="ROPT">     -0.00050000     -0.00050000     -0.00050000     -0.00050000</v>
    <i type="int" name="LMAXPAW">  -100</i>
    <i type="int" name="LMAXMIX">     4</i>
    <i type="logical" name="NLSPLINE"> F  </i>
   </separator>
   <separator name="electronic startup" >
    <i type="int" name="ISTART">     1</i>
    <i type="int" name="ICHARG">     0</i>
    <i type="int" name="INIWAV">     1</i>
   </separator>
   <separator name="electronic spin" >
    <i type="int" name="ISPIN">     2</i>
    <i type="logical" name="LNONCOLLINEAR"> F  </i>
    <v name="MAGMOM">      0.60000000      0.60000000      0.60000000      0.60000000      0.60000000      0.60000000      0.60000000      0.60000000      0.60000000      0.60000000      0.60000000      0.60000000      0.60000000      0.60000000      0.60000000      0.60000000      0.60000000      0.60000000      0.60000000      0.60000000
      0.60000000      0.60000000      0.60000000      0.60000000      0.60000000      0.60000000      0.60000000      0.60000000      0.60000000      0.60000000      0.60000000      0.60000000      0.60000000      0.60000000      0.60000000      0.60000000      0.60000000      0.60000000      0.60000000      0.60000000
      0.60000000      0.60000000      0.60000000      0.60000000      0.60000000      0.60000000      0.60000000      0.60000000      0.60000000      0.60000000      0.60000000      0.60000000      0.60000000      0.60000000      0.60000000      0.60000000      0.60000000      0.60000000      0.60000000      0.60000000
      5.00000000      5.00000000      5.00000000      5.00000000      0.60000000      0.60000000      0.60000000      0.60000000      0.60000000      0.60000000      0.60000000      0.60000000      0.60000000      0.60000000      0.60000000      0.60000000      0.60000000      0.60000000      0.60000000      0.60000000
      0.60000000      0.60000000      0.60000000      0.60000000      0.60000000      0.60000000      0.60000000      0.60000000      0.60000000      0.60000000      0.60000000      0.60000000      0.60000000      0.60000000      0.60000000      0.60000000      0.60000000      0.60000000      0.60000000      0.60000000
      0.60000000      0.60000000      0.60000000      0.60000000      0.60000000      0.60000000      0.60000000      0.60000000      0.60000000      0.60000000      0.60000000      0.60000000      0.60000000      0.60000000      0.60000000      0.60000000      0.60000000      0.60000000      0.60000000      0.60000000
      0.60000000      0.60000000      0.60000000      0.60000000      0.60000000      0.60000000      0.60000000      0.60000000      0.60000000      0.60000000      0.60000000      0.60000000      0.60000000      0.60000000      0.60000000      0.60000000      0.60000000      0.60000000      0.60000000      0.60000000
      0.60000000      0.60000000      0.60000000      0.60000000      0.60000000      0.60000000      0.60000000      0.60000000      0.60000000      0.60000000      0.60000000      0.60000000      0.60000000      0.60000000      0.60000000      0.60000000      0.60000000      0.60000000</v>
    <i name="NUPDOWN">     -1.00000000</i>
    <i type="logical" name="LSORBIT"> F  </i>
    <v name="SAXIS">      0.00000000      0.00000000      1.00000000</v>
    <i type="logical" name="LSPIRAL"> F  </i>
    <v name="QSPIRAL">      0.00000000      0.00000000      0.00000000</v>
    <i type="logical" name="LZEROZ"> F  </i>
   </separator>
   <separator name="electronic exchange-correlation" >
    <i type="logical" name="LASPH"> F  </i>
    <i type="logical" name="LMETAGGA"> F  </i>
   </separator>
   <separator name="electronic convergence" >
    <i type="int" name="NELM">    40</i>
    <i type="int" name="NELMDL">     0</i>
    <i type="int" name="NELMIN">     8</i>
    <i name="ENINI">    520.00000000</i>
    <separator name="electronic convergence detail" >
     <i type="logical" name="LDIAG"> T  </i>
     <i type="logical" name="LSUBROT"> F  </i>
     <i name="WEIMIN">      0.00100000</i>
     <i name="EBREAK">      0.00000003</i>
     <i name="DEPER">      0.30000000</i>
     <i type="int" name="NRMM">     4</i>
     <i name="TIME">      0.40000000</i>
    </separator>
   </separator>
   <separator name="electronic mixer" >
    <i name="AMIX">      0.40000000</i>
    <i name="BMIX">      1.00000000</i>
    <i name="AMIN">      0.10000000</i>
    <i name="AMIX_MAG">      1.60000000</i>
    <i name="BMIX_MAG">      1.00000000</i>
    <separator name="electronic mixer details" >
     <i type="int" name="IMIX">     4</i>
     <i type="logical" name="MIXFIRST"> F  </i>
     <i type="int" name="MAXMIX">   -45</i>
     <i name="WC">    100.00000000</i>
     <i type="int" name="INIMIX">     1</i>
     <i type="int" name="MIXPRE">     1</i>
     <i type="int" name="MREMOVE">     5</i>
    </separator>
   </separator>
   <separator name="electronic dipolcorrection" >
    <i type="logical" name="LDIPOL"> F  </i>
    <i type="logical" name="LMONO"> F  </i>
    <i type="int" name="IDIPOL">     0</i>
    <i name="EPSILON">      1.00000000</i>
    <v name="DIPOL">   -100.00000000   -100.00000000   -100.00000000</v>
    <i name="EFIELD">      0.00000000</i>
   </separator>
  </separator>
  <separator name="grids" >
   <i type="int" name="NGX">    64</i>
   <i type="int" name="NGY">    64</i>
   <i type="int" name="NGZ">    90</i>
   <i type="int" name="NGXF">   128</i>
   <i type="int" name="NGYF">   128</i>
   <i type="int" name="NGZF">   180</i>
   <i type="logical" name="ADDGRID"> F  </i>
  </separator>
  <separator name="ionic" >
   <i type="int" name="NSW">    30</i>
   <i type="int" name="IBRION">     2</i>
   <i type="int" name="ISIF">     3</i>
   <i name="PSTRESS">      0.00000000</i>
   <i name="EDIFFG">     -0.03000000</i>
   <i type="int" name="NFREE">     1</i>
   <i name="POTIM">      0.50000000</i>
   <i name="SMASS">     -3.00000000</i>
   <i name="SCALEE">      1.00000000</i>
  </separator>
  <separator name="ionic md" >
   <i name="TEBEG">      0.00010000</i>
   <i name="TEEND">      0.00010000</i>
   <i type="int" name="NBLOCK">     1</i>
   <i type="int" name="KBLOCK">    30</i>
   <i type="int" name="NPACO">   256</i>
   <i name="APACO">     16.00000000</i>
  </separator>
  <separator name="symmetry" >
   <i type="int" name="ISYM">     2</i>
   <i name="SYMPREC">      0.00001000</i>
  </separator>
  <separator name="dos" >
   <i type="logical" name="LORBIT"> F  </i>
   <v name="RWIGS">     -1.00000000     -1.00000000     -1.00000000     -1.00000000</v>
   <i type="int" name="NEDOS">   301</i>
   <i name="EMIN">     10.00000000</i>
   <i name="EMAX">    -10.00000000</i>
   <i name="EFERMI">      0.00000000</i>
  </separator>
  <separator name="writing" >
   <i type="int" name="NWRITE">     2</i>
   <i type="logical" name="LWAVE"> T  </i>
   <i type="logical" name="LCHARG"> T  </i>
   <i type="logical" name="LPARD"> F  </i>
   <i type="logical" name="LVTOT"> F  </i>
   <i type="logical" name="LVHAR"> F  </i>
   <i type="logical" name="LELF"> F  </i>
   <i type="logical" name="LOPTICS"> F  </i>
   <v name="STM">      0.00000000      0.00000000      0.00000000      0.00000000      0.00000000      0.00000000      0.00000000</v>
  </separator>
  <separator name="performance" >
   <i type="int" name="NPAR">     2</i>
   <i type="int" name="NSIM">     4</i>
   <i type="int" name="NBLK">    -1</i>
   <i type="logical" name="LPLANE"> T  </i>
   <i type="logical" name="LSCALAPACK"> T  </i>
   <i type="logical" name="LSCAAWARE"> F  </i>
   <i type="logical" name="LSCALU"> F  </i>
   <i type="logical" name="LASYNC"> F  </i>
   <i type="logical" name="LORBITALREAL"> F  </i>
  </separator>
  <separator name="miscellaneous" >
   <i type="int" name="IDIOT">     3</i>
   <i type="logical" name="LMUSIC"> F  </i>
   <v name="POMASS">     87.62000000     47.88000000     55.84700000     16.00000000</v>
   <v name="DARWINR">      0.00000000      0.00000000      0.00000000      0.00000000</v>
   <v name="DARWINV">      1.00000000      1.00000000      1.00000000      1.00000000</v>
   <i type="logical" name="LCORR"> T  </i>
  </separator>
  <i type="logical" name="GGA_COMPAT"> T  </i>
  <i type="logical" name="LBERRY"> F  </i>
  <i type="int" name="ICORELEVEL">     0</i>
  <i type="logical" name="LDAU"> T  </i>
  <v type="int" name="LDAUTYPE">     2</v>
  <v type="int" name="LDAUL">     0</v>
  <v name="LDAUU">      0.00000000</v>
  <v name="LDAUJ">      0.00000000</v>
  <i type="int" name="LDAUPRINT">     1</i>
  <i type="int" name="I_CONSTRAINED_M">     0</i>
  <separator name="electronic exchange-correlation" >
   <i type="string" name="GGA">--</i>
   <i type="int" name="VOSKOWN">     0</i>
   <i type="logical" name="LHFCALC"> F  </i>
   <i type="string" name="PRECFOCK"></i>
   <i type="logical" name="LSYMGRAD"> F  </i>
   <i type="logical" name="LHFONE"> F  </i>
   <i type="logical" name="LRHFCALC"> F  </i>
   <i type="logical" name="LTHOMAS"> F  </i>
   <i type="logical" name="LMODELHF"> F  </i>
   <i name="ENCUT4O">     -1.00000000</i>
   <i type="int" name="EXXOEP">     0</i>
   <i type="int" name="FOURORBIT">     0</i>
   <i name="AEXX">      0.00000000</i>
   <i name="HFALPHA">      0.00000000</i>
   <i name="MCALPHA">      0.00000000</i>
   <i name="ALDAX">      1.00000000</i>
   <i name="AGGAX">      1.00000000</i>
   <i name="ALDAC">      1.00000000</i>
   <i name="AGGAC">      1.00000000</i>
   <i type="int" name="NKREDX">     1</i>
   <i type="int" name="NKREDY">     1</i>
   <i type="int" name="NKREDZ">     1</i>
   <i type="logical" name="SHIFTRED"> F  </i>
   <i type="logical" name="ODDONLY"> F  </i>
   <i type="logical" name="EVENONLY"> F  </i>
   <i type="int" name="LMAXFOCK">     0</i>
   <i type="int" name="NMAXFOCKAE">     0</i>
   <i type="logical" name="LFOCKAEDFT"> F  </i>
   <i name="HFSCREEN">      0.00000000</i>
   <i name="HFSCREENC">      0.00000000</i>
   <i type="int" name="NBANDSGWLOW">     0</i>
  </separator>
  <separator name="vdW DFT" >
   <i type="logical" name="LUSE_VDW"> F  </i>
   <i name="Zab_VDW">     -0.84910000</i>
   <i name="PARAM1">      0.12340000</i>
   <i name="PARAM2">      1.00000000</i>
   <i name="PARAM3">      0.00000000</i>
  </separator>
  <separator name="model GW" >
   <i type="int" name="MODEL_GW">     0</i>
   <i name="MODEL_EPS0">      7.62448196</i>
   <i name="MODEL_ALPHA">      1.00000000</i>
  </separator>
  <separator name="linear response parameters" >
   <i type="logical" name="LEPSILON"> F  </i>
   <i type="logical" name="LRPA"> F  </i>
   <i type="logical" name="LNABLA"> F  </i>
   <i type="logical" name="LVEL"> F  </i>
   <i type="int" name="KINTER">     0</i>
   <i name="CSHIFT">      0.10000000</i>
   <i name="OMEGAMAX">     -1.00000000</i>
   <i name="DEG_THRESHOLD">      0.00200000</i>
  </separator>
  <separator name="orbital magnetization" >
   <i type="logical" name="NUCIND"> F  </i>
   <v name="MAGPOS">      0.00000000      0.00000000      0.00000000</v>
   <i type="logical" name="LNICSALL"> T  </i>
   <i type="logical" name="ORBITALMAG"> F  </i>
   <i type="logical" name="LMAGBLOCH"> F  </i>
   <i type="logical" name="LCHIMAG"> F  </i>
   <i type="logical" name="LGAUGE"> T  </i>
   <i type="int" name="MAGATOM">     0</i>
   <v name="MAGDIPOL">      0.00000000      0.00000000      0.00000000</v>
   <v name="AVECCONST">      0.00000000      0.00000000      0.00000000</v>
  </separator>
  <separator name="response functions" >
   <i type="logical" name="LADDER"> F  </i>
   <i type="logical" name="LFXC"> F  </i>
   <i type="logical" name="LHARTREE"> T  </i>
   <i type="int" name="IBSE">     0</i>
   <v type="int" name="KPOINT">    -1     0     0     0</v>
   <i type="logical" name="LTCTE"> F  </i>
   <i type="logical" name="LTETE"> F  </i>
   <i type="logical" name="LTRIPLET"> F  </i>
   <i type="logical" name="LFXCEPS"> F  </i>
   <i type="logical" name="LFXHEG"> F  </i>
   <i type="int" name="NATURALO">     0</i>
   <i type="logical" name="L2ORDER"> F  </i>
   <i type="logical" name="LUSEW"> F  </i>
   <i name="ENCUTGW">     -2.00000000</i>
   <i name="ENCUTGWSOFT">     -2.00000000</i>
   <i name="ENCUTLF">     -1.00000000</i>
   <i type="int" name="LMAXMP2">    -1</i>
   <i name="SCISSOR">      0.00000000</i>
   <i type="int" name="NOMEGA">     0</i>
   <i type="int" name="NOMEGAR">     0</i>
   <i type="int" name="NBANDSGW">    -1</i>
   <i type="int" name="NBANDSO">    -1</i>
   <i type="int" name="NBANDSV">    -1</i>
   <i type="int" name="NELM">    40</i>
   <i type="int" name="NELMHF">     1</i>
   <i type="int" name="DIM">     3</i>
   <i type="int" name="ANTIRES">     0</i>
   <i name="OMEGAMAX">    -30.00000000</i>
   <i name="OMEGAMIN">    -30.00000000</i>
   <i name="OMEGATL">   -200.00000000</i>
   <i type="int" name="OMEGAGRID">     0</i>
   <i name="CSHIFT">     -0.10000000</i>
   <i type="logical" name="SELFENERGY"> F  </i>
   <i type="logical" name="LSPECTRAL"> F  </i>
   <i type="logical" name="LSPECTRALGW"> F  </i>
   <i type="logical" name="LSINGLES"> F  </i>
   <i type="logical" name="LFERMIGW"> F  </i>
   <i type="logical" name="ODDONLYGW"> F  </i>
   <i type="logical" name="EVENONLYGW"> F  </i>
   <i type="int" name="NKREDLFX">     1</i>
   <i type="int" name="NKREDLFY">     1</i>
   <i type="int" name="NKREDLFZ">     1</i>
   <i type="int" name="MAXMEM">  1800</i>
   <i type="int" name="TELESCOPE">     0</i>
   <i type="int" name="TAUPAR">     1</i>
   <i type="int" name="OMEGAPAR">    -1</i>
   <i name="LAMBDA">      1.00000000</i>
  </separator>
  <separator name="External order field" >
   <i name="OFIELD_KAPPA">      0.00000000</i>
   <v name="OFIELD_K">      0.00000000      0.00000000      0.00000000</v>
   <i name="OFIELD_Q6_NEAR">      0.00000000</i>
   <i name="OFIELD_Q6_FAR">      0.00000000</i>
   <i name="OFIELD_A">      0.00000000</i>
  </separator>
 </parameters>
 <atominfo>
  <atoms>     158 </atoms>
  <types>       4 </types>
  <array name="atoms" >
   <dimension dim="1">ion</dimension>
   <field type="string">element</field>
   <field type="int">atomtype</field>
   <set>
    <rc><c>Sr</c><c>   1</c></rc>
    <rc><c>Sr</c><c>   1</c></rc>
    <rc><c>Sr</c><c>   1</c></rc>
    <rc><c>Sr</c><c>   1</c></rc>
    <rc><c>Sr</c><c>   1</c></rc>
    <rc><c>Sr</c><c>   1</c></rc>
    <rc><c>Sr</c><c>   1</c></rc>
    <rc><c>Sr</c><c>   1</c></rc>
    <rc><c>Sr</c><c>   1</c></rc>
    <rc><c>Sr</c><c>   1</c></rc>
    <rc><c>Sr</c><c>   1</c></rc>
    <rc><c>Sr</c><c>   1</c></rc>
    <rc><c>Sr</c><c>   1</c></rc>
    <rc><c>Sr</c><c>   1</c></rc>
    <rc><c>Sr</c><c>   1</c></rc>
    <rc><c>Sr</c><c>   1</c></rc>
    <rc><c>Sr</c><c>   1</c></rc>
    <rc><c>Sr</c><c>   1</c></rc>
    <rc><c>Sr</c><c>   1</c></rc>
    <rc><c>Sr</c><c>   1</c></rc>
    <rc><c>Sr</c><c>   1</c></rc>
    <rc><c>Sr</c><c>   1</c></rc>
    <rc><c>Sr</c><c>   1</c></rc>
    <rc><c>Sr</c><c>   1</c></rc>
    <rc><c>Sr</c><c>   1</c></rc>
    <rc><c>Sr</c><c>   1</c></rc>
    <rc><c>Sr</c><c>   1</c></rc>
    <rc><c>Sr</c><c>   1</c></rc>
    <rc><c>Sr</c><c>   1</c></rc>
    <rc><c>Sr</c><c>   1</c></rc>
    <rc><c>Sr</c><c>   1</c></rc>
    <rc><c>Sr</c><c>   1</c></rc>
    <rc><c>Ti</c><c>   2</c></rc>
    <rc><c>Ti</c><c>   2</c></rc>
    <rc><c>Ti</c><c>   2</c></rc>
    <rc><c>Ti</c><c>   2</c></rc>
    <rc><c>Ti</c><c>   2</c></rc>
    <rc><c>Ti</c><c>   2</c></rc>
    <rc><c>Ti</c><c>   2</c></rc>
    <rc><c>Ti</c><c>   2</c></rc>
    <rc><c>Ti</c><c>   2</c></rc>
    <rc><c>Ti</c><c>   2</c></rc>
    <rc><c>Ti</c><c>   2</c></rc>
    <rc><c>Ti</c><c>   2</c></rc>
    <rc><c>Ti</c><c>   2</c></rc>
    <rc><c>Ti</c><c>   2</c></rc>
    <rc><c>Ti</c><c>   2</c></rc>
    <rc><c>Ti</c><c>   2</c></rc>
    <rc><c>Ti</c><c>   2</c></rc>
    <rc><c>Ti</c><c>   2</c></rc>
    <rc><c>Ti</c><c>   2</c></rc>
    <rc><c>Ti</c><c>   2</c></rc>
    <rc><c>Ti</c><c>   2</c></rc>
    <rc><c>Ti</c><c>   2</c></rc>
    <rc><c>Ti</c><c>   2</c></rc>
    <rc><c>Ti</c><c>   2</c></rc>
    <rc><c>Ti</c><c>   2</c></rc>
    <rc><c>Ti</c><c>   2</c></rc>
    <rc><c>Ti</c><c>   2</c></rc>
    <rc><c>Ti</c><c>   2</c></rc>
    <rc><c>Fe</c><c>   3</c></rc>
    <rc><c>Fe</c><c>   3</c></rc>
    <rc><c>Fe</c><c>   3</c></rc>
    <rc><c>Fe</c><c>   3</c></rc>
    <rc><c>O </c><c>   4</c></rc>
    <rc><c>O </c><c>   4</c></rc>
    <rc><c>O </c><c>   4</c></rc>
    <rc><c>O </c><c>   4</c></rc>
    <rc><c>O </c><c>   4</c></rc>
    <rc><c>O </c><c>   4</c></rc>
    <rc><c>O </c><c>   4</c></rc>
    <rc><c>O </c><c>   4</c></rc>
    <rc><c>O </c><c>   4</c></rc>
    <rc><c>O </c><c>   4</c></rc>
    <rc><c>O </c><c>   4</c></rc>
    <rc><c>O </c><c>   4</c></rc>
    <rc><c>O </c><c>   4</c></rc>
    <rc><c>O </c><c>   4</c></rc>
    <rc><c>O </c><c>   4</c></rc>
    <rc><c>O </c><c>   4</c></rc>
    <rc><c>O </c><c>   4</c></rc>
    <rc><c>O </c><c>   4</c></rc>
    <rc><c>O </c><c>   4</c></rc>
    <rc><c>O </c><c>   4</c></rc>
    <rc><c>O </c><c>   4</c></rc>
    <rc><c>O </c><c>   4</c></rc>
    <rc><c>O </c><c>   4</c></rc>
    <rc><c>O </c><c>   4</c></rc>
    <rc><c>O </c><c>   4</c></rc>
    <rc><c>O </c><c>   4</c></rc>
    <rc><c>O </c><c>   4</c></rc>
    <rc><c>O </c><c>   4</c></rc>
    <rc><c>O </c><c>   4</c></rc>
    <rc><c>O </c><c>   4</c></rc>
    <rc><c>O </c><c>   4</c></rc>
    <rc><c>O </c><c>   4</c></rc>
    <rc><c>O </c><c>   4</c></rc>
    <rc><c>O </c><c>   4</c></rc>
    <rc><c>O </c><c>   4</c></rc>
    <rc><c>O </c><c>   4</c></rc>
    <rc><c>O </c><c>   4</c></rc>
    <rc><c>O </c><c>   4</c></rc>
    <rc><c>O </c><c>   4</c></rc>
    <rc><c>O </c><c>   4</c></rc>
    <rc><c>O </c><c>   4</c></rc>
    <rc><c>O </c><c>   4</c></rc>
    <rc><c>O </c><c>   4</c></rc>
    <rc><c>O </c><c>   4</c></rc>
    <rc><c>O </c><c>   4</c></rc>
    <rc><c>O </c><c>   4</c></rc>
    <rc><c>O </c><c>   4</c></rc>
    <rc><c>O </c><c>   4</c></rc>
    <rc><c>O </c><c>   4</c></rc>
    <rc><c>O </c><c>   4</c></rc>
    <rc><c>O </c><c>   4</c></rc>
    <rc><c>O </c><c>   4</c></rc>
    <rc><c>O </c><c>   4</c></rc>
    <rc><c>O </c><c>   4</c></rc>
    <rc><c>O </c><c>   4</c></rc>
    <rc><c>O </c><c>   4</c></rc>
    <rc><c>O </c><c>   4</c></rc>
    <rc><c>O </c><c>   4</c></rc>
    <rc><c>O </c><c>   4</c></rc>
    <rc><c>O </c><c>   4</c></rc>
    <rc><c>O </c><c>   4</c></rc>
    <rc><c>O </c><c>   4</c></rc>
    <rc><c>O </c><c>   4</c></rc>
    <rc><c>O </c><c>   4</c></rc>
    <rc><c>O </c><c>   4</c></rc>
    <rc><c>O </c><c>   4</c></rc>
    <rc><c>O </c><c>   4</c></rc>
    <rc><c>O </c><c>   4</c></rc>
    <rc><c>O </c><c>   4</c></rc>
    <rc><c>O </c><c>   4</c></rc>
    <rc><c>O </c><c>   4</c></rc>
    <rc><c>O </c><c>   4</c></rc>
    <rc><c>O </c><c>   4</c></rc>
    <rc><c>O </c><c>   4</c></rc>
    <rc><c>O </c><c>   4</c></rc>
    <rc><c>O </c><c>   4</c></rc>
    <rc><c>O </c><c>   4</c></rc>
    <rc><c>O </c><c>   4</c></rc>
    <rc><c>O </c><c>   4</c></rc>
    <rc><c>O </c><c>   4</c></rc>
    <rc><c>O </c><c>   4</c></rc>
    <rc><c>O </c><c>   4</c></rc>
    <rc><c>O </c><c>   4</c></rc>
    <rc><c>O </c><c>   4</c></rc>
    <rc><c>O </c><c>   4</c></rc>
    <rc><c>O </c><c>   4</c></rc>
    <rc><c>O </c><c>   4</c></rc>
    <rc><c>O </c><c>   4</c></rc>
    <rc><c>O </c><c>   4</c></rc>
    <rc><c>O </c><c>   4</c></rc>
    <rc><c>O </c><c>   4</c></rc>
    <rc><c>O </c><c>   4</c></rc>
    <rc><c>O </c><c>   4</c></rc>
    <rc><c>O </c><c>   4</c></rc>
   </set>
  </array>
  <array name="atomtypes" >
   <dimension dim="1">type</dimension>
   <field type="int">atomspertype</field>
   <field type="string">element</field>
   <field>mass</field>
   <field>valence</field>
   <field type="string">pseudopotential</field>
   <set>
    <rc><c>  32</c><c>Sr</c><c>     87.62000000</c><c>     10.00000000</c><c>  PAW_PBE Sr_sv 07Sep2000               </c></rc>
    <rc><c>  28</c><c>Ti</c><c>     47.88000000</c><c>      4.00000000</c><c>  PAW_PBE Ti 08Apr2002                  </c></rc>
    <rc><c>   4</c><c>Fe</c><c>     55.84700000</c><c>      8.00000000</c><c>  PAW_PBE Fe 06Sep2000                  </c></rc>
    <rc><c>  94</c><c>O </c><c>     16.00000000</c><c>      6.00000000</c><c>  PAW_PBE O 08Apr2002                   </c></rc>
   </set>
  </array>
 </atominfo>
 <structure name="initialpos" >
  <crystal>
   <varray name="basis" >
    <v>      11.21743397       0.00378157       0.00066017 </v>
    <v>       0.00378272      11.21740456       0.00024701 </v>
    <v>       0.00094489       0.00035051      15.95623133 </v>
   </varray>
   <i name="volume">   2007.78024956 </i>
   <varray name="rec_basis" >
    <v>       0.08914696      -0.00003006      -0.00000528 </v>
    <v>      -0.00003005       0.08914719      -0.00000196 </v>
    <v>      -0.00000369      -0.00000138       0.06267144 </v>
   </varray>
  </crystal>
  <varray name="positions" >
   <v>       0.99965480       0.25003442       0.12152943 </v>
   <v>       0.99725072       0.24579832       0.62809611 </v>
   <v>       0.99358790       0.74965751       0.12005575 </v>
   <v>       0.00589481       0.75476646       0.63080912 </v>
   <v>       0.49980820       0.25478853       0.12073509 </v>
   <v>       0.50298149       0.25286346       0.62579389 </v>
   <v>       0.50530308       0.74494883       0.11841780 </v>
   <v>       0.49393103       0.74791789       0.62855076 </v>
   <v>       0.99864773       0.24328428       0.37644924 </v>
   <v>       0.99925423       0.25303513       0.87449371 </v>
   <v>       0.00084060       0.75710954       0.37496027 </v>
   <v>       0.99959297       0.74720694       0.87463371 </v>
   <v>       0.50332943       0.25922268       0.37899831 </v>
   <v>       0.50040290       0.24757188       0.87435163 </v>
   <v>       0.50004989       0.74063485       0.37825830 </v>
   <v>       0.49962361       0.75228032       0.87480710 </v>
   <v>       0.25119347       0.00291167       0.11910503 </v>
   <v>       0.25041432       0.00058498       0.62827527 </v>
   <v>       0.25076712       0.49514604       0.12303432 </v>
   <v>       0.25408048       0.50309757       0.62654347 </v>
   <v>       0.75036613       0.99749171       0.12226731 </v>
   <v>       0.75031811       0.00719686       0.62569977 </v>
   <v>       0.74950975       0.49925670       0.12118575 </v>
   <v>       0.74863976       0.49448580       0.62787011 </v>
   <v>       0.24716161       0.00224758       0.37982576 </v>
   <v>       0.25251999       0.00093841       0.87404444 </v>
   <v>       0.25912288       0.49948659       0.37718085 </v>
   <v>       0.24668055       0.50043804       0.87376948 </v>
   <v>       0.75825410       0.00328560       0.37638695 </v>
   <v>       0.74621078       0.99977770       0.87517452 </v>
   <v>       0.74509079       0.49510326       0.37429202 </v>
   <v>       0.75215330       0.49868116       0.87503302 </v>
   <v>       0.00023785       0.99995090       0.99919646 </v>
   <v>       0.00093773       0.00099847       0.50138091 </v>
   <v>       0.00077524       0.49953731       0.99880562 </v>
   <v>       0.00704011       0.48737402       0.49948852 </v>
   <v>       0.49750663       0.00321827       0.50011419 </v>
   <v>       0.49958485       0.50000799       0.99815313 </v>
   <v>       0.25107092       0.24930999       0.99932552 </v>
   <v>       0.25525673       0.24926858       0.50092797 </v>
   <v>       0.25196027       0.75284910       0.99996456 </v>
   <v>       0.25219779       0.75150484       0.50044670 </v>
   <v>       0.74839272       0.24766990       0.99998740 </v>
   <v>       0.74794179       0.75169714       0.99840659 </v>
   <v>       0.73688639       0.75609900       0.50099058 </v>
   <v>       0.24905382       0.24984638       0.25071769 </v>
   <v>       0.24889576       0.25245078       0.74948958 </v>
   <v>       0.23676868       0.74306553       0.24880509 </v>
   <v>       0.24810317       0.74835574       0.75148521 </v>
   <v>       0.75434367       0.25217223       0.25033334 </v>
   <v>       0.75152010       0.25076982       0.74914734 </v>
   <v>       0.75122919       0.74774015       0.25006788 </v>
   <v>       0.75247183       0.74703653       0.74951279 </v>
   <v>       0.00112306       0.00111240       0.24827865 </v>
   <v>       0.99970460       0.00005179       0.75182480 </v>
   <v>       0.99611500       0.49684607       0.25027340 </v>
   <v>       0.50792783       0.01241427       0.25131292 </v>
   <v>       0.50117677       0.00046752       0.75060103 </v>
   <v>       0.50146508       0.50006814       0.24995866 </v>
   <v>       0.50060407       0.50023443       0.74945933 </v>
   <v>       0.49905140       0.99834408       0.99969219 </v>
   <v>       0.50275838       0.49772770       0.50184281 </v>
   <v>       0.74793613       0.25159209       0.49968683 </v>
   <v>       0.99938434       0.50167025       0.74917267 </v>
   <v>       0.10534698       0.14485305       0.24941065 </v>
   <v>       0.11022057       0.13917451       0.75021353 </v>
   <v>       0.10452492       0.64536471       0.24930188 </v>
   <v>       0.11179603       0.64089696       0.75065827 </v>
   <v>       0.60632248       0.14427926       0.24960141 </v>
   <v>       0.61145234       0.13889660       0.74891798 </v>
   <v>       0.61085772       0.64044535       0.25086244 </v>
   <v>       0.61057850       0.64066874       0.74940496 </v>
   <v>       0.38916152       0.36093663       0.24992986 </v>
   <v>       0.38929129       0.36095109       0.75056139 </v>
   <v>       0.38844658       0.86115472       0.74925924 </v>
   <v>       0.89506130       0.35578569       0.25193964 </v>
   <v>       0.88865820       0.36002674       0.74863799 </v>
   <v>       0.89259310       0.85805000       0.25014505 </v>
   <v>       0.89049590       0.86021441       0.75093833 </v>
   <v>       0.35511771       0.10361017       0.25030090 </v>
   <v>       0.36105035       0.11117765       0.75028794 </v>
   <v>       0.36393402       0.62151103       0.24949540 </v>
   <v>       0.36093457       0.61169067       0.75128442 </v>
   <v>       0.85649106       0.10603848       0.24851197 </v>
   <v>       0.86116944       0.10930340       0.75160124 </v>
   <v>       0.85737296       0.60695900       0.24449243 </v>
   <v>       0.85912174       0.61118173       0.75514225 </v>
   <v>       0.14137148       0.39651956       0.25634525 </v>
   <v>       0.13960795       0.38916715       0.74352390 </v>
   <v>       0.14900668       0.89585743       0.25024722 </v>
   <v>       0.13953645       0.88960969       0.74932357 </v>
   <v>       0.64162048       0.39089127       0.24839100 </v>
   <v>       0.63896202       0.38890497       0.75133733 </v>
   <v>       0.63530416       0.88625702       0.25742509 </v>
   <v>       0.64078798       0.88787028       0.74310438 </v>
   <v>       0.36067142       0.38961920       0.00001545 </v>
   <v>       0.35566952       0.38932594       0.50025833 </v>
   <v>       0.35919909       0.88869130       0.99489044 </v>
   <v>       0.35853912       0.89071187       0.50556570 </v>
   <v>       0.86164201       0.38849505       0.00025291 </v>
   <v>       0.85910544       0.39871878       0.49912479 </v>
   <v>       0.86137189       0.88897610       0.00037530 </v>
   <v>       0.86746482       0.87510794       0.49887758 </v>
   <v>       0.13867636       0.11117126       0.00001446 </v>
   <v>       0.13930076       0.11057707       0.50059211 </v>
   <v>       0.13997272       0.61305834       0.00731222 </v>
   <v>       0.13013024       0.61796072       0.49145159 </v>
   <v>       0.63792088       0.11161903       0.00698953 </v>
   <v>       0.63708828       0.10265666       0.49235354 </v>
   <v>       0.63895566       0.61128191       0.00105819 </v>
   <v>       0.65004070       0.60775662       0.49912648 </v>
   <v>       0.11178807       0.36099741       0.00136583 </v>
   <v>       0.10798714       0.35706922       0.50008135 </v>
   <v>       0.11023507       0.86013923       0.00197138 </v>
   <v>       0.11307049       0.86268881       0.49801160 </v>
   <v>       0.61085524       0.36145565       0.00007391 </v>
   <v>       0.60779247       0.35711235       0.50067622 </v>
   <v>       0.61200520       0.85998959       0.00047767 </v>
   <v>       0.60600238       0.85583459       0.50008682 </v>
   <v>       0.38739760       0.13977118       0.00267417 </v>
   <v>       0.39154344       0.14101531       0.49662343 </v>
   <v>       0.38927186       0.63956284       0.00022876 </v>
   <v>       0.38682674       0.64014231       0.49892194 </v>
   <v>       0.88949497       0.13838734       0.00013411 </v>
   <v>       0.88823301       0.13411887       0.49919797 </v>
   <v>       0.88805768       0.63860064       0.00055258 </v>
   <v>       0.00021415       0.99917036       0.12504193 </v>
   <v>       0.99902502       0.99938175       0.62550319 </v>
   <v>       0.00110488       0.49663707       0.12742238 </v>
   <v>       0.98991048       0.52059931       0.61722878 </v>
   <v>       0.48747725       0.97848138       0.13420830 </v>
   <v>       0.50032403       0.00317894       0.62265271 </v>
   <v>       0.49903095       0.49971476       0.12477910 </v>
   <v>       0.49867153       0.50218748       0.62699826 </v>
   <v>       0.99947720       0.00039784       0.37379176 </v>
   <v>       0.00189694       0.99874391       0.87569591 </v>
   <v>       0.98510286       0.51539243       0.37704135 </v>
   <v>       0.00526892       0.49972305       0.87731553 </v>
   <v>       0.48253664       0.98178562       0.37110911 </v>
   <v>       0.50505365       0.00026471       0.87296665 </v>
   <v>       0.49869343       0.49994435       0.37302631 </v>
   <v>       0.50067419       0.50116677       0.87547209 </v>
   <v>       0.24894107       0.24922976       0.37535445 </v>
   <v>       0.24830741       0.25184706       0.87478928 </v>
   <v>       0.26410633       0.76349085       0.36954509 </v>
   <v>       0.24708136       0.74829310       0.87590581 </v>
   <v>       0.75136043       0.24913506       0.37201064 </v>
   <v>       0.74867621       0.24747817       0.87613046 </v>
   <v>       0.76446139       0.73755963       0.37854228 </v>
   <v>       0.74757656       0.75294285       0.87480341 </v>
   <v>       0.24801923       0.25371857       0.12657867 </v>
   <v>       0.25191233       0.24631143       0.62393384 </v>
   <v>       0.26432052       0.76400900       0.12938498 </v>
   <v>       0.24761983       0.74625103       0.62455157 </v>
   <v>       0.75233480       0.25234018       0.12604631 </v>
   <v>       0.75072679       0.24576658       0.62564865 </v>
   <v>       0.74883781       0.75344629       0.12603483 </v>
   <v>       0.76469065       0.73784752       0.62107444 </v>
  </varray>
 </structure>
 <calculation>
  <scstep>
   <time name="dav">  588.33  588.33</time>
   <time name="total">  595.66  595.73</time>
   <energy>
    <i name="alphaZ">   5626.25201300 </i>
    <i name="ewald"> -60963.26160560 </i>
    <i name="hartreedc"> -15520.81939027 </i>
    <i name="XCdc">   2851.94174953 </i>
    <i name="pawpsdc"> 112065.05458194 </i>
    <i name="pawaedc">-110812.77420370 </i>
    <i name="eentropy">     -0.00000000 </i>
    <i name="bandstr">  -7048.43807001 </i>
    <i name="atom">  72650.08363186 </i>
    <i name="e_fr_energy">  -1151.96129325 </i>
    <i name="e_wo_entrp">  -1151.96129325 </i>
    <i name="e_0_energy">  -1151.96129325 </i>
   </energy>
  </scstep>
  <scstep>
   <time name="diag">   64.95   64.95</time>
   <time name="diis">   62.71   62.71</time>
   <time name="orth">   33.43   33.43</time>
   <time name="total">  168.29  168.32</time>
   <energy>
    <i name="e_fr_energy">  -1151.96129405 </i>
    <i name="e_wo_entrp">  -1151.96129405 </i>
    <i name="e_0_energy">  -1151.96129405 </i>
   </energy>
  </scstep>
  <scstep>
   <time name="diag">   64.88   64.89</time>
   <time name="diis">   58.38   58.38</time>
   <time name="orth">   33.34   33.34</time>
   <time name="total">  163.81  163.89</time>
   <energy>
    <i name="e_fr_energy">  -1151.96129455 </i>
    <i name="e_wo_entrp">  -1151.96129455 </i>
    <i name="e_0_energy">  -1151.96129455 </i>
   </energy>
  </scstep>
  <scstep>
   <time name="diag">   64.99   64.99</time>
   <time name="diis">   49.97   49.97</time>
   <time name="orth">   33.33   33.33</time>
   <time name="total">  155.50  155.52</time>
   <energy>
    <i name="e_fr_energy">  -1151.96129527 </i>
    <i name="e_wo_entrp">  -1151.96129527 </i>
    <i name="e_0_energy">  -1151.96129527 </i>
   </energy>
  </scstep>
  <scstep>
   <time name="diag">   65.00   65.00</time>
   <time name="diis">   48.85   48.85</time>
   <time name="orth">   33.31   33.31</time>
   <time name="total">  154.38  154.44</time>
   <energy>
    <i name="e_fr_energy">  -1151.96129590 </i>
    <i name="e_wo_entrp">  -1151.96129590 </i>
    <i name="e_0_energy">  -1151.96129590 </i>
   </energy>
  </scstep>
  <scstep>
   <time name="diag">   64.95   64.95</time>
   <time name="diis">   45.57   45.58</time>
   <time name="orth">   33.34   33.34</time>
   <time name="total">  151.08  151.16</time>
   <energy>
    <i name="e_fr_energy">  -1151.96129617 </i>
    <i name="e_wo_entrp">  -1151.96129617 </i>
    <i name="e_0_energy">  -1151.96129617 </i>
   </energy>
  </scstep>
  <scstep>
   <time name="diag">   65.23   65.24</time>
   <time name="diis">   44.37   44.37</time>
   <time name="orth">   33.47   33.47</time>
   <time name="total">  150.29  150.31</time>
   <energy>
    <i name="e_fr_energy">  -1151.96129628 </i>
    <i name="e_wo_entrp">  -1151.96129628 </i>
    <i name="e_0_energy">  -1151.96129628 </i>
   </energy>
  </scstep>
  <scstep>
   <time name="diag">   65.16   65.17</time>
   <time name="diis">   42.55   42.55</time>
   <time name="orth">   33.49   33.49</time>
   <time name="total">  142.26  142.36</time>
   <energy>
    <i name="alphaZ">   5626.25201300 </i>
    <i name="ewald"> -60963.26160560 </i>
    <i name="hartreedc"> -15520.84645254 </i>
    <i name="XCdc">   2851.94292226 </i>
    <i name="pawpsdc"> 112063.68714537 </i>
    <i name="pawaedc">-110811.38121431 </i>
    <i name="eentropy">     -0.00000000 </i>
    <i name="bandstr">  -7048.43773637 </i>
    <i name="atom">  72650.08363186 </i>
    <i name="e_fr_energy">  -1151.96129633 </i>
    <i name="e_wo_entrp">  -1151.96129633 </i>
    <i name="e_0_energy">  -1151.96129633 </i>
   </energy>
  </scstep>
  <structure>
   <crystal>
    <varray name="basis" >
     <v>      11.21743397       0.00378157       0.00066017 </v>
     <v>       0.00378272      11.21740456       0.00024701 </v>
     <v>       0.00094489       0.00035051      15.95623133 </v>
    </varray>
    <i name="volume">   2007.78024956 </i>
    <varray name="rec_basis" >
     <v>       0.08914696      -0.00003006      -0.00000528 </v>
     <v>      -0.00003005       0.08914719      -0.00000196 </v>
     <v>      -0.00000369      -0.00000138       0.06267144 </v>
    </varray>
   </crystal>
   <varray name="positions" >
    <v>       0.99965480       0.25003442       0.12152943 </v>
    <v>       0.99725072       0.24579832       0.62809611 </v>
    <v>       0.99358790       0.74965751       0.12005575 </v>
    <v>       0.00589481       0.75476646       0.63080912 </v>
    <v>       0.49980820       0.25478853       0.12073509 </v>
    <v>       0.50298149       0.25286346       0.62579389 </v>
    <v>       0.50530308       0.74494883       0.11841780 </v>
    <v>       0.49393103       0.74791789       0.62855076 </v>
    <v>       0.99864773       0.24328428       0.37644924 </v>
    <v>       0.99925423       0.25303513       0.87449371 </v>
    <v>       0.00084060       0.75710954       0.37496027 </v>
    <v>       0.99959297       0.74720694       0.87463371 </v>
    <v>       0.50332943       0.25922268       0.37899831 </v>
    <v>       0.50040290       0.24757188       0.87435163 </v>
    <v>       0.50004989       0.74063485       0.37825830 </v>
    <v>       0.49962361       0.75228032       0.87480710 </v>
    <v>       0.25119347       0.00291167       0.11910503 </v>
    <v>       0.25041432       0.00058498       0.62827527 </v>
    <v>       0.25076712       0.49514604       0.12303432 </v>
    <v>       0.25408048       0.50309757       0.62654347 </v>
    <v>       0.75036613       0.99749171       0.12226731 </v>
    <v>       0.75031811       0.00719686       0.62569977 </v>
    <v>       0.74950975       0.49925670       0.12118575 </v>
    <v>       0.74863976       0.49448580       0.62787011 </v>
    <v>       0.24716161       0.00224758       0.37982576 </v>
    <v>       0.25251999       0.00093841       0.87404444 </v>
    <v>       0.25912288       0.49948659       0.37718085 </v>
    <v>       0.24668055       0.50043804       0.87376948 </v>
    <v>       0.75825410       0.00328560       0.37638695 </v>
    <v>       0.74621078       0.99977770       0.87517452 </v>
    <v>       0.74509079       0.49510326       0.37429202 </v>
    <v>       0.75215330       0.49868116       0.87503302 </v>
    <v>       0.00023785       0.99995090       0.99919646 </v>
    <v>       0.00093773       0.00099847       0.50138091 </v>
    <v>       0.00077524       0.49953731       0.99880562 </v>
    <v>       0.00704011       0.48737402       0.49948852 </v>
    <v>       0.49750663       0.00321827       0.50011419 </v>
    <v>       0.49958485       0.50000799       0.99815313 </v>
    <v>       0.25107092       0.24930999       0.99932552 </v>
    <v>       0.25525673       0.24926858       0.50092797 </v>
    <v>       0.25196027       0.75284910       0.99996456 </v>
    <v>       0.25219779       0.75150484       0.50044670 </v>
    <v>       0.74839272       0.24766990       0.99998740 </v>
    <v>       0.74794179       0.75169714       0.99840659 </v>
    <v>       0.73688639       0.75609900       0.50099058 </v>
    <v>       0.24905382       0.24984638       0.25071769 </v>
    <v>       0.24889576       0.25245078       0.74948958 </v>
    <v>       0.23676868       0.74306553       0.24880509 </v>
    <v>       0.24810317       0.74835574       0.75148521 </v>
    <v>       0.75434367       0.25217223       0.25033334 </v>
    <v>       0.75152010       0.25076982       0.74914734 </v>
    <v>       0.75122919       0.74774015       0.25006788 </v>
    <v>       0.75247183       0.74703653       0.74951279 </v>
    <v>       0.00112306       0.00111240       0.24827865 </v>
    <v>       0.99970460       0.00005179       0.75182480 </v>
    <v>       0.99611500       0.49684607       0.25027340 </v>
    <v>       0.50792783       0.01241427       0.25131292 </v>
    <v>       0.50117677       0.00046752       0.75060103 </v>
    <v>       0.50146508       0.50006814       0.24995866 </v>
    <v>       0.50060407       0.50023443       0.74945933 </v>
    <v>       0.49905140       0.99834408       0.99969219 </v>
    <v>       0.50275838       0.49772770       0.50184281 </v>
    <v>       0.74793613       0.25159209       0.49968683 </v>
    <v>       0.99938434       0.50167025       0.74917267 </v>
    <v>       0.10534698       0.14485305       0.24941065 </v>
    <v>       0.11022057       0.13917451       0.75021353 </v>
    <v>       0.10452492       0.64536471       0.24930188 </v>
    <v>       0.11179603       0.64089696       0.75065827 </v>
    <v>       0.60632248       0.14427926       0.24960141 </v>
    <v>       0.61145234       0.13889660       0.74891798 </v>
    <v>       0.61085772       0.64044535       0.25086244 </v>
    <v>       0.61057850       0.64066874       0.74940496 </v>
    <v>       0.38916152       0.36093663       0.24992986 </v>
    <v>       0.38929129       0.36095109       0.75056139 </v>
    <v>       0.38844658       0.86115472       0.74925924 </v>
    <v>       0.89506130       0.35578569       0.25193964 </v>
    <v>       0.88865820       0.36002674       0.74863799 </v>
    <v>       0.89259310       0.85805000       0.25014505 </v>
    <v>       0.89049590       0.86021441       0.75093833 </v>
    <v>       0.35511771       0.10361017       0.25030090 </v>
    <v>       0.36105035       0.11117765       0.75028794 </v>
    <v>       0.36393402       0.62151103       0.24949540 </v>
    <v>       0.36093457       0.61169067       0.75128442 </v>
    <v>       0.85649106       0.10603848       0.24851197 </v>
    <v>       0.86116944       0.10930340       0.75160124 </v>
    <v>       0.85737296       0.60695900       0.24449243 </v>
    <v>       0.85912174       0.61118173       0.75514225 </v>
    <v>       0.14137148       0.39651956       0.25634525 </v>
    <v>       0.13960795       0.38916715       0.74352390 </v>
    <v>       0.14900668       0.89585743       0.25024722 </v>
    <v>       0.13953645       0.88960969       0.74932357 </v>
    <v>       0.64162048       0.39089127       0.24839100 </v>
    <v>       0.63896202       0.38890497       0.75133733 </v>
    <v>       0.63530416       0.88625702       0.25742509 </v>
    <v>       0.64078798       0.88787028       0.74310438 </v>
    <v>       0.36067142       0.38961920       0.00001545 </v>
    <v>       0.35566952       0.38932594       0.50025833 </v>
    <v>       0.35919909       0.88869130       0.99489044 </v>
    <v>       0.35853912       0.89071187       0.50556570 </v>
    <v>       0.86164201       0.38849505       0.00025291 </v>
    <v>       0.85910544       0.39871878       0.49912479 </v>
    <v>       0.86137189       0.88897610       0.00037530 </v>
    <v>       0.86746482       0.87510794       0.49887758 </v>
    <v>       0.13867636       0.11117126       0.00001446 </v>
    <v>       0.13930076       0.11057707       0.50059211 </v>
    <v>       0.13997272       0.61305834       0.00731222 </v>
    <v>       0.13013024       0.61796072       0.49145159 </v>
    <v>       0.63792088       0.11161903       0.00698953 </v>
    <v>       0.63708828       0.10265666       0.49235354 </v>
    <v>       0.63895566       0.61128191       0.00105819 </v>
    <v>       0.65004070       0.60775662       0.49912648 </v>
    <v>       0.11178807       0.36099741       0.00136583 </v>
    <v>       0.10798714       0.35706922       0.50008135 </v>
    <v>       0.11023507       0.86013923       0.00197138 </v>
    <v>       0.11307049       0.86268881       0.49801160 </v>
    <v>       0.61085524       0.36145565       0.00007391 </v>
    <v>       0.60779247       0.35711235       0.50067622 </v>
    <v>       0.61200520       0.85998959       0.00047767 </v>
    <v>       0.60600238       0.85583459       0.50008682 </v>
    <v>       0.38739760       0.13977118       0.00267417 </v>
    <v>       0.39154344       0.14101531       0.49662343 </v>
    <v>       0.38927186       0.63956284       0.00022876 </v>
    <v>       0.38682674       0.64014231       0.49892194 </v>
    <v>       0.88949497       0.13838734       0.00013411 </v>
    <v>       0.88823301       0.13411887       0.49919797 </v>
    <v>       0.88805768       0.63860064       0.00055258 </v>
    <v>       0.00021415       0.99917036       0.12504193 </v>
    <v>       0.99902502       0.99938175       0.62550319 </v>
    <v>       0.00110488       0.49663707       0.12742238 </v>
    <v>       0.98991048       0.52059931       0.61722878 </v>
    <v>       0.48747725       0.97848138       0.13420830 </v>
    <v>       0.50032403       0.00317894       0.62265271 </v>
    <v>       0.49903095       0.49971476       0.12477910 </v>
    <v>       0.49867153       0.50218748       0.62699826 </v>
    <v>       0.99947720       0.00039784       0.37379176 </v>
    <v>       0.00189694       0.99874391       0.87569591 </v>
    <v>       0.98510286       0.51539243       0.37704135 </v>
    <v>       0.00526892       0.49972305       0.87731553 </v>
    <v>       0.48253664       0.98178562       0.37110911 </v>
    <v>       0.50505365       0.00026471       0.87296665 </v>
    <v>       0.49869343       0.49994435       0.37302631 </v>
    <v>       0.50067419       0.50116677       0.87547209 </v>
    <v>       0.24894107       0.24922976       0.37535445 </v>
    <v>       0.24830741       0.25184706       0.87478928 </v>
    <v>       0.26410633       0.76349085       0.36954509 </v>
    <v>       0.24708136       0.74829310       0.87590581 </v>
    <v>       0.75136043       0.24913506       0.37201064 </v>
    <v>       0.74867621       0.24747817       0.87613046 </v>
    <v>       0.76446139       0.73755963       0.37854228 </v>
    <v>       0.74757656       0.75294285       0.87480341 </v>
    <v>       0.24801923       0.25371857       0.12657867 </v>
    <v>       0.25191233       0.24631143       0.62393384 </v>
    <v>       0.26432052       0.76400900       0.12938498 </v>
    <v>       0.24761983       0.74625103       0.62455157 </v>
    <v>       0.75233480       0.25234018       0.12604631 </v>
    <v>       0.75072679       0.24576658       0.62564865 </v>
    <v>       0.74883781       0.75344629       0.12603483 </v>
    <v>       0.76469065       0.73784752       0.62107444 </v>
   </varray>
  </structure>
  <varray name="forces" >
   <v>      -0.00116562       0.01590568       0.01707656 </v>
   <v>      -0.01073148       0.00301227      -0.00589134 </v>
   <v>      -0.00983186      -0.01736666       0.01428095 </v>
   <v>       0.01485370       0.00298622      -0.00024448 </v>
   <v>      -0.00461546      -0.00706620       0.01205614 </v>
   <v>       0.00542056      -0.00509808      -0.01522230 </v>
   <v>       0.01797656       0.00208851       0.00374279 </v>
   <v>      -0.00672040       0.00362469      -0.01311572 </v>
   <v>      -0.01163191       0.00527709      -0.00105797 </v>
   <v>      -0.00022757       0.00545716      -0.00292071 </v>
   <v>       0.00792950       0.00745010      -0.01503102 </v>
   <v>      -0.00097817      -0.01369663      -0.00225369 </v>
   <v>       0.00608669       0.00362861      -0.00830119 </v>
   <v>      -0.00436411      -0.00729348       0.00744283 </v>
   <v>       0.01885824      -0.02061254       0.00695449 </v>
   <v>       0.00153280       0.00763203       0.00096668 </v>
   <v>       0.00565452       0.00532658       0.01981986 </v>
   <v>       0.00416519       0.00325827      -0.00473504 </v>
   <v>      -0.00872146       0.00874188       0.00724212 </v>
   <v>      -0.00638965       0.00416656      -0.00870506 </v>
   <v>       0.00463092      -0.00477295       0.01145839 </v>
   <v>      -0.00091316      -0.00079943      -0.00835394 </v>
   <v>       0.01221024      -0.00750961       0.01442250 </v>
   <v>       0.00061248      -0.00332509      -0.01680741 </v>
   <v>       0.00529329       0.01352276      -0.01717849 </v>
   <v>      -0.00254587       0.01179608      -0.00059491 </v>
   <v>       0.00907153      -0.00386339      -0.00361021 </v>
   <v>       0.00058255      -0.00015583       0.00338784 </v>
   <v>       0.00624330      -0.00035958       0.00517053 </v>
   <v>      -0.00152529      -0.00356377       0.00314626 </v>
   <v>      -0.00590466      -0.01735001       0.00533730 </v>
   <v>      -0.00470821      -0.00063361       0.00194946 </v>
   <v>      -0.02318595      -0.00400428      -0.01111744 </v>
   <v>      -0.02039731       0.00623439       0.00707154 </v>
   <v>      -0.01550789       0.00035963       0.03387383 </v>
   <v>       0.01244177       0.02785690      -0.00464166 </v>
   <v>       0.00296360      -0.01116304       0.01097237 </v>
   <v>      -0.01490081      -0.00659091       0.00058873 </v>
   <v>      -0.00278399       0.00608230      -0.01474901 </v>
   <v>       0.00635030      -0.00101827       0.00721350 </v>
   <v>       0.02011168      -0.03999650      -0.01668800 </v>
   <v>      -0.00364154      -0.02545645       0.01573705 </v>
   <v>       0.02198709       0.03090875       0.00321250 </v>
   <v>       0.01649070       0.00510414       0.00357663 </v>
   <v>      -0.01138877       0.02877969      -0.00907417 </v>
   <v>       0.00182747       0.01161145      -0.00583738 </v>
   <v>      -0.00685756       0.00599620       0.01995841 </v>
   <v>      -0.06356828      -0.05992100       0.01404826 </v>
   <v>      -0.01594602      -0.00403674      -0.00777141 </v>
   <v>       0.00215910       0.01605211      -0.01698203 </v>
   <v>       0.00704577       0.00608355       0.00612730 </v>
   <v>      -0.00529351      -0.00932291      -0.00626683 </v>
   <v>      -0.00230057      -0.00796732       0.01406637 </v>
   <v>      -0.00624071      -0.01391865       0.02537807 </v>
   <v>       0.00834406       0.00555069      -0.00013402 </v>
   <v>      -0.00434176      -0.00549911      -0.02214651 </v>
   <v>       0.01521103       0.01620887      -0.01757588 </v>
   <v>      -0.01441128      -0.01328024      -0.00618168 </v>
   <v>      -0.00317017       0.00860652       0.00339947 </v>
   <v>      -0.00203219       0.01066063      -0.00439186 </v>
   <v>       0.00020033      -0.00658360      -0.00305463 </v>
   <v>      -0.00408677       0.00261300       0.00497690 </v>
   <v>       0.00161803      -0.01102060       0.00085026 </v>
   <v>       0.00126808       0.00879963       0.00643651 </v>
   <v>       0.01945396      -0.01739059       0.00537823 </v>
   <v>       0.00366935      -0.00597480      -0.00341576 </v>
   <v>       0.05247846       0.02799947      -0.00246175 </v>
   <v>      -0.00408104      -0.00393596      -0.00346532 </v>
   <v>      -0.00230048      -0.01094276      -0.00687216 </v>
   <v>      -0.00228987      -0.00347589       0.00608065 </v>
   <v>       0.00638218      -0.00682531      -0.00557729 </v>
   <v>       0.00113830      -0.00459577      -0.00831085 </v>
   <v>      -0.00551868       0.00753286       0.00266948 </v>
   <v>      -0.00810354       0.00730692       0.00148068 </v>
   <v>       0.00424071       0.01248343       0.00368126 </v>
   <v>      -0.01548110       0.00498822       0.01072732 </v>
   <v>      -0.00945931      -0.00050612       0.00012229 </v>
   <v>      -0.01379904       0.01315296       0.00268511 </v>
   <v>      -0.01438854       0.00328322       0.00161123 </v>
   <v>       0.00607184      -0.00234879       0.01165406 </v>
   <v>       0.00712546       0.00670177       0.01063134 </v>
   <v>       0.01264284       0.01101098       0.00240668 </v>
   <v>       0.00836213      -0.00247574       0.00226537 </v>
   <v>       0.01816274       0.01465143       0.00008234 </v>
   <v>      -0.00476624       0.00448739       0.00379013 </v>
   <v>      -0.00761922       0.00150809       0.00521471 </v>
   <v>      -0.01186294       0.00309829       0.00229030 </v>
   <v>       0.00667306      -0.02309162       0.01014387 </v>
   <v>      -0.00275637      -0.00533325      -0.00253326 </v>
   <v>       0.00661574       0.00153745      -0.00136261 </v>
   <v>      -0.00968163       0.00517338      -0.00739380 </v>
   <v>      -0.00585439      -0.00070428       0.00348326 </v>
   <v>      -0.01348582      -0.01048586      -0.00638920 </v>
   <v>       0.00209139      -0.00044005       0.00071500 </v>
   <v>      -0.00882680      -0.00021061      -0.00280756 </v>
   <v>       0.00025759      -0.00339777      -0.00403406 </v>
   <v>       0.01378146      -0.01398551      -0.00262626 </v>
   <v>      -0.00408868      -0.00163469      -0.00276396 </v>
   <v>       0.00514544       0.00296365      -0.00219755 </v>
   <v>      -0.00069872      -0.00204862      -0.01576952 </v>
   <v>      -0.00382148      -0.01444798       0.00146408 </v>
   <v>       0.00143648       0.00465826      -0.00867354 </v>
   <v>       0.02840330       0.00288982       0.00278066 </v>
   <v>      -0.00533366       0.01214740       0.00486949 </v>
   <v>      -0.00986330       0.01568449       0.00516675 </v>
   <v>      -0.00032849       0.00921449      -0.00410088 </v>
   <v>      -0.00034845       0.01906963       0.00575353 </v>
   <v>      -0.01560039      -0.01351141      -0.00239874 </v>
   <v>       0.00016164       0.01555737      -0.00894624 </v>
   <v>      -0.01204497      -0.00116147       0.00415865 </v>
   <v>       0.01140182      -0.01065707       0.00063065 </v>
   <v>       0.00029575      -0.00755284      -0.01216725 </v>
   <v>       0.02532006      -0.00899971       0.01635268 </v>
   <v>       0.00719992       0.00005387       0.00067000 </v>
   <v>       0.01547991       0.01451942       0.00583046 </v>
   <v>      -0.00885223       0.00303032      -0.00375920 </v>
   <v>       0.02124845       0.01293086      -0.00030171 </v>
   <v>      -0.01609385       0.00864459      -0.00099473 </v>
   <v>       0.01418909       0.00816000      -0.00076354 </v>
   <v>       0.00292683      -0.00618343       0.00402568 </v>
   <v>      -0.01593850      -0.00932286      -0.01564755 </v>
   <v>      -0.01241240      -0.00127389      -0.01012150 </v>
   <v>      -0.00749428      -0.00079362      -0.00249499 </v>
   <v>      -0.00734316      -0.01094073      -0.00338356 </v>
   <v>       0.00394580      -0.01740824       0.00113313 </v>
   <v>       0.00227652      -0.00209338      -0.01040710 </v>
   <v>      -0.00398911      -0.00192935       0.00444243 </v>
   <v>       0.00618567       0.00410406      -0.01043564 </v>
   <v>      -0.00135277      -0.00600177       0.01614812 </v>
   <v>      -0.01894668       0.00407799       0.01507408 </v>
   <v>      -0.00864918       0.00052722       0.00857162 </v>
   <v>      -0.00153855       0.00773366      -0.01706392 </v>
   <v>      -0.00410655       0.00419556       0.00230414 </v>
   <v>      -0.00637609      -0.00058125       0.00735052 </v>
   <v>       0.01489431      -0.00047995       0.00539199 </v>
   <v>       0.00041931      -0.00942784      -0.01480642 </v>
   <v>      -0.00245216       0.00771124      -0.00066549 </v>
   <v>       0.00110321       0.00494797      -0.01805847 </v>
   <v>      -0.00506922      -0.00896172       0.00964937 </v>
   <v>      -0.00448593      -0.00295585       0.00124333 </v>
   <v>       0.00231710       0.00486399      -0.00848633 </v>
   <v>      -0.00012476      -0.00154394      -0.01271290 </v>
   <v>      -0.00701441       0.01046853       0.00853872 </v>
   <v>       0.00244837      -0.00593477       0.00020978 </v>
   <v>       0.00364789      -0.00169984       0.00947426 </v>
   <v>      -0.00682949       0.00406960       0.00841427 </v>
   <v>       0.00024419      -0.00070928      -0.00100246 </v>
   <v>      -0.00791629       0.00231627      -0.01753136 </v>
   <v>       0.01759358      -0.00348668      -0.00235472 </v>
   <v>       0.00023636      -0.00371114      -0.02059407 </v>
   <v>      -0.00670397      -0.00609260       0.01118247 </v>
   <v>       0.01298067      -0.00240171      -0.01267086 </v>
   <v>       0.00167100      -0.00317544      -0.00945151 </v>
   <v>       0.01455583       0.00075053      -0.01898872 </v>
   <v>       0.01147304      -0.00086778       0.00764618 </v>
   <v>      -0.00932957       0.00339709       0.00168314 </v>
   <v>       0.01315751       0.01163541       0.01436665 </v>
   <v>       0.00580491      -0.00926402       0.01401783 </v>
  </varray>
  <varray name="stress" >
   <v>       0.09860947      -0.05153456      -0.02639991 </v>
   <v>      -0.05153492       0.09868195      -0.00585166 </v>
   <v>      -0.02640002      -0.00585227       0.11006656 </v>
  </varray>
  <energy>
   <i name="e_fr_energy">  -1151.96129633 </i>
   <i name="e_wo_entrp">  -1151.96129633 </i>
   <i name="e_0_energy">     -0.00000000 </i>
  </energy>
  <time name="totalsc"> 1948.75 1950.86</time>
 </calculation>
 <calculation>
  <scstep>
   <time name="dav">  586.06  586.10</time>
   <time name="total">  593.25  593.32</time>
   <energy>
    <i name="alphaZ">   5625.59039475 </i>
    <i name="ewald"> -60960.43236543 </i>
    <i name="hartreedc"> -15520.57851758 </i>
    <i name="XCdc">   2851.79133139 </i>
    <i name="pawpsdc"> 112063.68867974 </i>
    <i name="pawaedc">-110811.38232409 </i>
    <i name="eentropy">     -0.00000000 </i>
    <i name="bandstr">  -7050.72247546 </i>
    <i name="atom">  72650.08363186 </i>
    <i name="e_fr_energy">  -1151.96164481 </i>
    <i name="e_wo_entrp">  -1151.96164481 </i>
    <i name="e_0_energy">  -1151.96164481 </i>
   </energy>
  </scstep>
  <scstep>
   <time name="diag">   65.19   65.19</time>
   <time name="diis">  104.86  104.86</time>
   <time name="orth">   33.41   33.41</time>
   <time name="total">  210.74  210.81</time>
   <energy>
    <i name="e_fr_energy">  -1151.96233221 </i>
    <i name="e_wo_entrp">  -1151.96233221 </i>
    <i name="e_0_energy">  -1151.96233221 </i>
   </energy>
  </scstep>
  <scstep>
   <time name="diag">   65.20   65.20</time>
   <time name="diis">   97.22   97.23</time>
   <time name="orth">   33.41   33.41</time>
   <time name="total">  203.12  203.18</time>
   <energy>
    <i name="e_fr_energy">  -1151.96219835 </i>
    <i name="e_wo_entrp">  -1151.96219835 </i>
    <i name="e_0_energy">  -1151.96219835 </i>
   </energy>
  </scstep>
  <scstep>
   <time name="diag">   65.16   65.16</time>
   <time name="diis">   90.18   90.19</time>
   <time name="orth">   33.47   33.47</time>
   <time name="total">  196.10  196.16</time>
   <energy>
    <i name="e_fr_energy">  -1151.96209452 </i>
    <i name="e_wo_entrp">  -1151.96209452 </i>
    <i name="e_0_energy">  -1151.96209452 </i>
   </energy>
  </scstep>
  <scstep>
   <time name="diag">   65.20   65.21</time>
   <time name="diis">   69.25   69.25</time>
   <time name="orth">   33.43   33.43</time>
   <time name="total">  175.18  175.27</time>
   <energy>
    <i name="e_fr_energy">  -1151.96205939 </i>
    <i name="e_wo_entrp">  -1151.96205939 </i>
    <i name="e_0_energy">  -1151.96205939 </i>
   </energy>
  </scstep>
  <scstep>
   <time name="diag">   65.20   65.20</time>
   <time name="diis">   63.52   63.53</time>
   <time name="orth">   33.42   33.42</time>
   <time name="total">  169.44  169.52</time>
   <energy>
    <i name="e_fr_energy">  -1151.96206004 </i>
    <i name="e_wo_entrp">  -1151.96206004 </i>
    <i name="e_0_energy">  -1151.96206004 </i>
   </energy>
  </scstep>
  <scstep>
   <time name="diag">   65.17   65.17</time>
   <time name="diis">   61.82   61.82</time>
   <time name="orth">   33.40   33.40</time>
   <time name="total">  167.64  167.68</time>
   <energy>
    <i name="e_fr_energy">  -1151.96205931 </i>
    <i name="e_wo_entrp">  -1151.96205931 </i>
    <i name="e_0_energy">  -1151.96205931 </i>
   </energy>
  </scstep>
  <scstep>
   <time name="diag">   65.14   65.14</time>
   <time name="diis">   59.70   59.71</time>
   <time name="orth">   33.42   33.42</time>
   <time name="total">  159.32  159.39</time>
   <energy>
    <i name="alphaZ">   5625.59039475 </i>
    <i name="ewald"> -60960.43236543 </i>
    <i name="hartreedc"> -15522.19912752 </i>
    <i name="XCdc">   2851.90280151 </i>
    <i name="pawpsdc"> 112032.67769421 </i>
    <i name="pawaedc">-110780.34645920 </i>
    <i name="eentropy">     -0.00000000 </i>
    <i name="bandstr">  -7049.23862873 </i>
    <i name="atom">  72650.08363186 </i>
    <i name="e_fr_energy">  -1151.96205853 </i>
    <i name="e_wo_entrp">  -1151.96205853 </i>
    <i name="e_0_energy">  -1151.96205853 </i>
   </energy>
  </scstep>
  <structure>
   <crystal>
    <varray name="basis" >
     <v>      11.21785713       0.00356051       0.00054688 </v>
     <v>       0.00356167      11.21782804       0.00022187 </v>
     <v>       0.00078374       0.00031477      15.95690331 </v>
    </varray>
    <i name="volume">   2008.01638194 </i>
    <varray name="rec_basis" >
     <v>       0.08914359      -0.00002830      -0.00000438 </v>
     <v>      -0.00002829       0.08914383      -0.00000176 </v>
     <v>      -0.00000305      -0.00000124       0.06266880 </v>
    </varray>
   </crystal>
   <varray name="positions" >
    <v>       0.99964976       0.25010283       0.12158106 </v>
    <v>       0.99720456       0.24581129       0.62807830 </v>
    <v>       0.99354564       0.74958283       0.12009893 </v>
    <v>       0.00595869       0.75477928       0.63080838 </v>
    <v>       0.49978836       0.25475815       0.12077154 </v>
    <v>       0.50300481       0.25284153       0.62574787 </v>
    <v>       0.50538039       0.74495778       0.11842911 </v>
    <v>       0.49390213       0.74793349       0.62851111 </v>
    <v>       0.99859770       0.24330699       0.37644605 </v>
    <v>       0.99925324       0.25305860       0.87448488 </v>
    <v>       0.00087470       0.75714157       0.37491483 </v>
    <v>       0.99958878       0.74714804       0.87462690 </v>
    <v>       0.50335561       0.25923827       0.37897321 </v>
    <v>       0.50038414       0.24754052       0.87437413 </v>
    <v>       0.50013103       0.74054618       0.37827932 </v>
    <v>       0.49963019       0.75231314       0.87481002 </v>
    <v>       0.25121777       0.00293457       0.11916496 </v>
    <v>       0.25043223       0.00059898       0.62826095 </v>
    <v>       0.25072960       0.49518365       0.12305621 </v>
    <v>       0.25405300       0.50311550       0.62651716 </v>
    <v>       0.75038605       0.99747118       0.12230195 </v>
    <v>       0.75031419       0.00719343       0.62567451 </v>
    <v>       0.74956227       0.49922438       0.12122936 </v>
    <v>       0.74864240       0.49447150       0.62781930 </v>
    <v>       0.24718436       0.00230573       0.37977382 </v>
    <v>       0.25250902       0.00098914       0.87404264 </v>
    <v>       0.25916190       0.49946996       0.37716993 </v>
    <v>       0.24668305       0.50043737       0.87377972 </v>
    <v>       0.75828095       0.00328404       0.37640258 </v>
    <v>       0.74620423       0.99976238       0.87518404 </v>
    <v>       0.74506542       0.49502865       0.37430816 </v>
    <v>       0.75213305       0.49867844       0.87503891 </v>
    <v>       0.00013814       0.99993372       0.99916285 </v>
    <v>       0.00085000       0.00102531       0.50140229 </v>
    <v>       0.00070854       0.49953888       0.99890803 </v>
    <v>       0.00709358       0.48749381       0.49947448 </v>
    <v>       0.49751939       0.00317026       0.50014736 </v>
    <v>       0.49952077       0.49997966       0.99815492 </v>
    <v>       0.25105895       0.24933615       0.99928092 </v>
    <v>       0.25528405       0.24926419       0.50094978 </v>
    <v>       0.25204683       0.75267706       0.99991410 </v>
    <v>       0.25218216       0.75139537       0.50049428 </v>
    <v>       0.74848724       0.24780279       0.99999711 </v>
    <v>       0.74801270       0.75171907       0.99841740 </v>
    <v>       0.73683737       0.75622279       0.50096314 </v>
    <v>       0.24906166       0.24989632       0.25070004 </v>
    <v>       0.24886625       0.25247658       0.74954992 </v>
    <v>       0.23649538       0.74280791       0.24884757 </v>
    <v>       0.24803459       0.74833840       0.75146171 </v>
    <v>       0.75435293       0.25224126       0.25028199 </v>
    <v>       0.75155039       0.25079597       0.74916586 </v>
    <v>       0.75120644       0.74770007       0.25004893 </v>
    <v>       0.75246195       0.74700226       0.74955532 </v>
    <v>       0.00109623       0.00105254       0.24835538 </v>
    <v>       0.99974048       0.00007565       0.75182439 </v>
    <v>       0.99609634       0.49682243       0.25020645 </v>
    <v>       0.50799323       0.01248396       0.25125978 </v>
    <v>       0.50111481       0.00041043       0.75058235 </v>
    <v>       0.50145143       0.50010516       0.24996894 </v>
    <v>       0.50059532       0.50028028       0.74944605 </v>
    <v>       0.49905228       0.99831577       0.99968296 </v>
    <v>       0.50274080       0.49773895       0.50185786 </v>
    <v>       0.74794310       0.25154469       0.49968940 </v>
    <v>       0.99938978       0.50170809       0.74919213 </v>
    <v>       0.10543067       0.14477823       0.24942691 </v>
    <v>       0.11023636       0.13914881       0.75020320 </v>
    <v>       0.10475057       0.64548505       0.24929442 </v>
    <v>       0.11177848       0.64088003       0.75064779 </v>
    <v>       0.60631261       0.14423220       0.24958064 </v>
    <v>       0.61144250       0.13888166       0.74893637 </v>
    <v>       0.61088517       0.64041599       0.25084557 </v>
    <v>       0.61058341       0.64064897       0.74937984 </v>
    <v>       0.38913777       0.36096904       0.24993793 </v>
    <v>       0.38925643       0.36098253       0.75056587 </v>
    <v>       0.38846480       0.86120840       0.74927037 </v>
    <v>       0.89499471       0.35580716       0.25197208 </v>
    <v>       0.88861752       0.36002458       0.74863836 </v>
    <v>       0.89253374       0.85810659       0.25015317 </v>
    <v>       0.89043401       0.86022855       0.75094321 </v>
    <v>       0.35514383       0.10360005       0.25033613 </v>
    <v>       0.36108098       0.11120646       0.75032008 </v>
    <v>       0.36398837       0.62155837       0.24950267 </v>
    <v>       0.36097054       0.61168001       0.75129127 </v>
    <v>       0.85656915       0.10610146       0.24851221 </v>
    <v>       0.86114894       0.10932270       0.75161270 </v>
    <v>       0.85734019       0.60696550       0.24450819 </v>
    <v>       0.85907072       0.61119508       0.75514918 </v>
    <v>       0.14140021       0.39642023       0.25637592 </v>
    <v>       0.13959610       0.38914422       0.74351624 </v>
    <v>       0.14903513       0.89586403       0.25024310 </v>
    <v>       0.13949481       0.88963195       0.74930122 </v>
    <v>       0.64159530       0.39088825       0.24840153 </v>
    <v>       0.63890404       0.38885989       0.75131802 </v>
    <v>       0.63531316       0.88625512       0.25742725 </v>
    <v>       0.64075002       0.88786939       0.74309589 </v>
    <v>       0.36067253       0.38960459       0.00000325 </v>
    <v>       0.35572881       0.38926578       0.50025039 </v>
    <v>       0.35918151       0.88868428       0.99488209 </v>
    <v>       0.35856125       0.89072460       0.50555906 </v>
    <v>       0.86163901       0.38848624       0.00020523 </v>
    <v>       0.85908903       0.39865665       0.49912922 </v>
    <v>       0.86137806       0.88899613       0.00034908 </v>
    <v>       0.86758697       0.87512032       0.49888598 </v>
    <v>       0.13865340       0.11122351       0.00002918 </v>
    <v>       0.13925832       0.11064454       0.50060774 </v>
    <v>       0.13997129       0.61309797       0.00729982 </v>
    <v>       0.13012871       0.61804274       0.49146898 </v>
    <v>       0.63785380       0.11156094       0.00698228 </v>
    <v>       0.63708896       0.10272357       0.49232649 </v>
    <v>       0.63890386       0.61127693       0.00107077 </v>
    <v>       0.65008975       0.60771077       0.49912838 </v>
    <v>       0.11178935       0.36096493       0.00132905 </v>
    <v>       0.10809604       0.35703047       0.50013079 </v>
    <v>       0.11026604       0.86013945       0.00197341 </v>
    <v>       0.11313704       0.86275123       0.49802923 </v>
    <v>       0.61081716       0.36146869       0.00006255 </v>
    <v>       0.60788383       0.35716794       0.50067530 </v>
    <v>       0.61193598       0.86002679       0.00047467 </v>
    <v>       0.60606339       0.85586966       0.50008451 </v>
    <v>       0.38741019       0.13974458       0.00268634 </v>
    <v>       0.39147492       0.14097524       0.49657613 </v>
    <v>       0.38921849       0.63955738       0.00019816 </v>
    <v>       0.38679451       0.64013890       0.49891439 </v>
    <v>       0.88946341       0.13834029       0.00012389 </v>
    <v>       0.88825000       0.13404399       0.49920139 </v>
    <v>       0.88806747       0.63859163       0.00052111 </v>
    <v>       0.00019699       0.99916207       0.12505536 </v>
    <v>       0.99905162       0.99939939       0.62547164 </v>
    <v>       0.00109907       0.49661126       0.12747121 </v>
    <v>       0.98982899       0.52061687       0.61727436 </v>
    <v>       0.48744005       0.97848366       0.13423422 </v>
    <v>       0.50031741       0.00321220       0.62260112 </v>
    <v>       0.49901328       0.49973281       0.12478607 </v>
    <v>       0.49864411       0.50218499       0.62702048 </v>
    <v>       0.99954125       0.00039575       0.37380806 </v>
    <v>       0.00189876       0.99870337       0.87565114 </v>
    <v>       0.98509230       0.51542559       0.37703934 </v>
    <v>       0.00527366       0.49974433       0.87726093 </v>
    <v>       0.48251485       0.98174709       0.37113829 </v>
    <v>       0.50503436       0.00025201       0.87297041 </v>
    <v>       0.49870339       0.49996527       0.37300066 </v>
    <v>       0.50067366       0.50116013       0.87543365 </v>
    <v>       0.24891089       0.24927480       0.37538027 </v>
    <v>       0.24831795       0.25182153       0.87478991 </v>
    <v>       0.26412202       0.76348353       0.36957374 </v>
    <v>       0.24705198       0.74831061       0.87593125 </v>
    <v>       0.75136149       0.24913201       0.37200761 </v>
    <v>       0.74864217       0.24748815       0.87607746 </v>
    <v>       0.76453706       0.73754461       0.37853516 </v>
    <v>       0.74757758       0.75292689       0.87474115 </v>
    <v>       0.24799041       0.25369238       0.12661248 </v>
    <v>       0.25196817       0.24630108       0.62389553 </v>
    <v>       0.26432771       0.76399534       0.12935640 </v>
    <v>       0.24768244       0.74625424       0.62449416 </v>
    <v>       0.75238414       0.25233643       0.12606943 </v>
    <v>       0.75068666       0.24578120       0.62565374 </v>
    <v>       0.74889438       0.75349631       0.12607827 </v>
    <v>       0.76471563       0.73780766       0.62111682 </v>
   </varray>
  </structure>
  <varray name="forces" >
   <v>       0.00849327      -0.00803480       0.01757637 </v>
   <v>      -0.00785148       0.00351279      -0.00870601 </v>
   <v>      -0.00088969       0.00676206       0.00432450 </v>
   <v>       0.00446912       0.00927994      -0.00263782 </v>
   <v>      -0.00818790      -0.00708920       0.00588148 </v>
   <v>       0.00478780      -0.00552069      -0.00937830 </v>
   <v>       0.00273075       0.00632602       0.00603869 </v>
   <v>       0.00002507       0.00283559      -0.00201716 </v>
   <v>      -0.00128931       0.00013360       0.00558139 </v>
   <v>      -0.00007713       0.00294676      -0.00682515 </v>
   <v>       0.00429762       0.01397171       0.00197713 </v>
   <v>       0.00075941      -0.00761453      -0.00304624 </v>
   <v>       0.00220133      -0.00191645      -0.00064836 </v>
   <v>      -0.00012914      -0.01114994      -0.00109150 </v>
   <v>       0.00484075      -0.01085929       0.00024214 </v>
   <v>       0.00232604       0.00972311      -0.00007259 </v>
   <v>      -0.00109146      -0.00530672       0.01363191 </v>
   <v>       0.00238597       0.00839399      -0.01387002 </v>
   <v>       0.00422440       0.00625418       0.00477456 </v>
   <v>       0.00046298      -0.00807432      -0.00691868 </v>
   <v>       0.00467442      -0.00100615       0.01024553 </v>
   <v>      -0.00174128       0.00165946       0.00419126 </v>
   <v>      -0.00650092      -0.00276083       0.01318322 </v>
   <v>      -0.00216363      -0.00354575      -0.01348883 </v>
   <v>       0.00625342       0.00757359      -0.01045300 </v>
   <v>      -0.00052745       0.00665078       0.00802431 </v>
   <v>       0.01266326      -0.01160808       0.00267010 </v>
   <v>       0.00070746      -0.00066792      -0.00092230 </v>
   <v>       0.00267498       0.00430726       0.00154043 </v>
   <v>      -0.00611777       0.00239630      -0.00390446 </v>
   <v>      -0.00468018      -0.01631008       0.01261993 </v>
   <v>      -0.00950176      -0.00090700      -0.00842015 </v>
   <v>       0.04140665      -0.00452497       0.01299112 </v>
   <v>       0.03015671      -0.00746371       0.00180435 </v>
   <v>       0.01248139       0.00432424      -0.02756274 </v>
   <v>       0.01367294      -0.02454094       0.01556740 </v>
   <v>      -0.01991466       0.00495614      -0.01431776 </v>
   <v>       0.01529824      -0.00084962      -0.00927714 </v>
   <v>       0.00399430      -0.02500715       0.00631887 </v>
   <v>      -0.00188300      -0.01568000      -0.00207954 </v>
   <v>      -0.04173854       0.04823872       0.01291160 </v>
   <v>      -0.00638266       0.02982436      -0.01978117 </v>
   <v>      -0.03391786      -0.03112022      -0.01440440 </v>
   <v>      -0.02152211       0.00530838      -0.00953290 </v>
   <v>       0.02785179      -0.01990392       0.01759905 </v>
   <v>       0.00971857      -0.01869096       0.01325924 </v>
   <v>       0.01742357      -0.00523448      -0.01916517 </v>
   <v>       0.08287651       0.06402217      -0.00176895 </v>
   <v>       0.00714258       0.00083033      -0.00134807 </v>
   <v>      -0.01285605      -0.00808743       0.01922472 </v>
   <v>      -0.01491693      -0.00241550      -0.00451879 </v>
   <v>      -0.01734892       0.01375866       0.01221173 </v>
   <v>      -0.00376894       0.00132773      -0.00684347 </v>
   <v>       0.01255681      -0.00197967      -0.00598300 </v>
   <v>      -0.01822034      -0.00116044      -0.00738510 </v>
   <v>      -0.01061242      -0.01096965       0.03366328 </v>
   <v>      -0.02240596      -0.01878937       0.01342490 </v>
   <v>       0.00958583       0.01205693       0.00720593 </v>
[...]
       <r>   -15.8018     0.0000    32.0000 </r>
       <r>   -15.6500     0.0000    32.0000 </r>
       <r>   -15.4981     0.0000    32.0000 </r>
       <r>   -15.3463     0.0011    32.0002 </r>
       <r>   -15.1945     6.4308    32.9766 </r>
       <r>   -15.0426    21.8238    36.2904 </r>
       <r>   -14.8908    39.4003    42.2730 </r>
       <r>   -14.7389    52.4174    50.2322 </r>
       <r>   -14.5871    38.1745    56.0286 </r>
       <r>   -14.4352    33.7263    61.1497 </r>
       <r>   -14.2834    33.6194    66.2545 </r>
       <r>   -14.1316    74.1792    77.5180 </r>
       <r>   -13.9797   129.4794    97.1784 </r>
       <r>   -13.8279   129.0938   116.7802 </r>
       <r>   -13.6760    49.8324   124.3469 </r>
       <r>   -13.5242    10.6075   125.9575 </r>
       <r>   -13.3724     0.2798   126.0000 </r>
       <r>   -13.2205     0.0000   126.0000 </r>
       <r>   -13.0687     0.0000   126.0000 </r>
       <r>   -12.9168     0.0000   126.0000 </r>
       <r>   -12.7650     0.0081   126.0012 </r>
       <r>   -12.6131    17.2332   128.6179 </r>
       <r>   -12.4613   103.1834   144.2855 </r>
       <r>   -12.3095   164.3197   169.2361 </r>
       <r>   -12.1576   135.6438   189.8325 </r>
       <r>   -12.0058   127.9621   209.2624 </r>
       <r>   -11.8539    73.8890   220.4819 </r>
       <r>   -11.7021     9.9779   221.9969 </r>
       <r>   -11.5503     0.0202   222.0000 </r>
       <r>   -11.3984     0.0000   222.0000 </r>
       <r>   -11.2466     0.0000   222.0000 </r>
       <r>   -11.0947     0.0000   222.0000 </r>
       <r>   -10.9429     0.0000   222.0000 </r>
       <r>   -10.7910     0.0000   222.0000 </r>
       <r>   -10.6392     0.0000   222.0000 </r>
       <r>   -10.4874     0.0000   222.0000 </r>
       <r>   -10.3355     0.0000   222.0000 </r>
       <r>   -10.1837     0.0000   222.0000 </r>
       <r>   -10.0318     0.0000   222.0000 </r>
       <r>    -9.8800     0.0000   222.0000 </r>
       <r>    -9.7282     0.0000   222.0000 </r>
       <r>    -9.5763     0.0000   222.0000 </r>
       <r>    -9.4245     0.0000   222.0000 </r>
       <r>    -9.2726     0.0000   222.0000 </r>
       <r>    -9.1208     0.0000   222.0000 </r>
       <r>    -8.9689     0.0000   222.0000 </r>
       <r>    -8.8171     0.0000   222.0000 </r>
       <r>    -8.6653     0.0000   222.0000 </r>
       <r>    -8.5134     0.0000   222.0000 </r>
       <r>    -8.3616     0.0000   222.0000 </r>
       <r>    -8.2097     0.0000   222.0000 </r>
       <r>    -8.0579     0.0000   222.0000 </r>
       <r>    -7.9061     0.0000   222.0000 </r>
       <r>    -7.7542     0.0000   222.0000 </r>
       <r>    -7.6024     0.0000   222.0000 </r>
       <r>    -7.4505     0.0000   222.0000 </r>
       <r>    -7.2987     0.0000   222.0000 </r>
       <r>    -7.1468     0.0000   222.0000 </r>
       <r>    -6.9950     0.0000   222.0000 </r>
       <r>    -6.8432     0.0000   222.0000 </r>
       <r>    -6.6913     0.0000   222.0000 </r>
       <r>    -6.5395     0.0000   222.0000 </r>
       <r>    -6.3876     0.0000   222.0000 </r>
       <r>    -6.2358     0.0000   222.0000 </r>
       <r>    -6.0840     0.0000   222.0000 </r>
       <r>    -5.9321     0.0000   222.0000 </r>
       <r>    -5.7803     0.0000   222.0000 </r>
       <r>    -5.6284     0.0000   222.0000 </r>
       <r>    -5.4766     0.0000   222.0000 </r>
       <r>    -5.3247     0.0000   222.0000 </r>
       <r>    -5.1729     0.0000   222.0000 </r>
       <r>    -5.0211     0.0000   222.0000 </r>
       <r>    -4.8692     0.0000   222.0000 </r>
       <r>    -4.7174     0.0000   222.0000 </r>
       <r>    -4.5655     0.0000   222.0000 </r>
       <r>    -4.4137     0.0000   222.0000 </r>
       <r>    -4.2619     0.0000   222.0000 </r>
       <r>    -4.1100     0.0000   222.0000 </r>
       <r>    -3.9582     0.0000   222.0000 </r>
       <r>    -3.8063     0.0000   222.0000 </r>
       <r>    -3.6545     0.0000   222.0000 </r>
       <r>    -3.5026     0.0000   222.0000 </r>
       <r>    -3.3508     0.0000   222.0000 </r>
       <r>    -3.1990     0.0000   222.0000 </r>
       <r>    -3.0471     0.0000   222.0000 </r>
       <r>    -2.8953     0.0000   222.0000 </r>
       <r>    -2.7434     0.0000   222.0000 </r>
       <r>    -2.5916     0.0000   222.0000 </r>
       <r>    -2.4398     0.0001   222.0000 </r>
       <r>    -2.2879     3.2075   222.4870 </r>
       <r>    -2.1361    21.0684   225.6861 </r>
       <r>    -1.9842    27.5205   229.8649 </r>
       <r>    -1.8324    37.9592   235.6287 </r>
       <r>    -1.6805    62.5462   245.1258 </r>
       <r>    -1.5287    56.7763   253.7468 </r>
       <r>    -1.3769    58.3580   262.6080 </r>
       <r>    -1.2250    72.4209   273.6045 </r>
       <r>    -1.0732    68.0053   283.9305 </r>
       <r>    -0.9213    78.3631   295.8293 </r>
       <r>    -0.7695    72.6428   306.8595 </r>
       <r>    -0.6177    97.8732   321.7208 </r>
       <r>    -0.4658   124.7795   340.6675 </r>
       <r>    -0.3140    86.9327   353.8675 </r>
       <r>    -0.1621    53.9469   362.0589 </r>
       <r>    -0.0103    52.9355   370.0967 </r>
       <r>     0.1416    44.0227   376.7812 </r>
       <r>     0.2934    42.4795   383.2314 </r>
       <r>     0.4452    48.5055   390.5965 </r>
       <r>     0.5971    60.9254   399.8475 </r>
       <r>     0.7489    42.8240   406.3500 </r>
       <r>     0.9008    49.0756   413.8017 </r>
       <r>     1.0526    59.1870   422.7888 </r>
       <r>     1.2045    80.3404   434.9878 </r>
       <r>     1.3563    86.1800   448.0735 </r>
       <r>     1.5081   101.1461   463.4317 </r>
       <r>     1.6600    80.6240   475.6738 </r>
       <r>     1.8118    72.4165   486.6697 </r>
       <r>     1.9637    53.9256   494.8578 </r>
       <r>     2.1155    33.9931   500.0194 </r>
       <r>     2.2673    25.4480   503.8834 </r>
       <r>     2.4192     0.7676   504.0000 </r>
       <r>     2.5710     0.0000   504.0000 </r>
       <r>     2.7229     0.0000   504.0000 </r>
       <r>     2.8747     0.0000   504.0000 </r>
       <r>     3.0266     0.0000   504.0000 </r>
       <r>     3.1784     0.0000   504.0000 </r>
       <r>     3.3302     0.0000   504.0000 </r>
       <r>     3.4821     0.0000   504.0000 </r>
       <r>     3.6339     0.0000   504.0000 </r>
       <r>     3.7858     0.0000   504.0000 </r>
       <r>     3.9376     0.0000   504.0000 </r>
       <r>     4.0894     0.0000   504.0000 </r>
       <r>     4.2413     0.0000   504.0000 </r>
       <r>     4.3931     0.0018   504.0003 </r>
       <r>     4.5450     6.0274   504.9155 </r>
       <r>     4.6968    23.9978   508.5594 </r>
       <r>     4.8487    41.3913   514.8443 </r>
       <r>     5.0005    24.2616   518.5282 </r>
       <r>     5.1523    38.9071   524.4359 </r>
       <r>     5.3042    53.5114   532.5612 </r>
       <r>     5.4560    67.9152   542.8736 </r>
       <r>     5.6079    56.4263   551.4414 </r>
       <r>     5.7597    68.2478   561.8043 </r>
       <r>     5.9115    81.6495   574.2021 </r>
       <r>     6.0634    94.8776   588.6085 </r>
       <r>     6.2152    83.5306   601.2919 </r>
       <r>     6.3671    59.7484   610.3642 </r>
       <r>     6.5189    39.4074   616.3479 </r>
       <r>     6.6708    19.7860   619.3522 </r>
       <r>     6.8226    26.2646   623.3403 </r>
       <r>     6.9744    19.6109   626.3180 </r>
       <r>     7.1263    21.0886   629.5202 </r>
       <r>     7.2781    15.0968   631.8125 </r>
       <r>     7.4300    16.4788   634.3147 </r>
       <r>     7.5818    14.1290   636.4600 </r>
       <r>     7.7336    13.1256   638.4530 </r>
       <r>     7.8855    16.9814   641.0315 </r>
       <r>     8.0373    25.4799   644.9004 </r>
       <r>     8.1892    22.1833   648.2688 </r>
       <r>     8.3410    23.4615   651.8312 </r>
       <r>     8.4929    29.7051   656.3417 </r>
       <r>     8.6447    23.7688   659.9508 </r>
       <r>     8.7965    22.2987   663.3367 </r>
       <r>     8.9484    28.7700   667.7051 </r>
       <r>     9.1002    39.7077   673.7344 </r>
       <r>     9.2521    39.8441   679.7844 </r>
       <r>     9.4039    38.5197   685.6333 </r>
       <r>     9.5557    43.9948   692.3136 </r>
       <r>     9.7076    41.4256   698.6037 </r>
       <r>     9.8594    56.6303   707.2026 </r>
       <r>    10.0113    67.9785   717.5245 </r>
       <r>    10.1631    73.0920   728.6229 </r>
       <r>    10.3150    68.4019   739.0092 </r>
       <r>    10.4668    58.1744   747.8425 </r>
       <r>    10.6186    55.6353   756.2903 </r>
       <r>    10.7705    57.8024   765.0671 </r>
       <r>    10.9223    19.3031   767.9981 </r>
       <r>    11.0742     0.0125   768.0000 </r>
       <r>    11.2260     0.0000   768.0000 </r>
       <r>    11.3778     0.0000   768.0000 </r>
       <r>    11.5297     0.0000   768.0000 </r>
       <r>    11.6815     0.0000   768.0000 </r>
       <r>    11.8334     0.0000   768.0000 </r>
       <r>    11.9852     0.0000   768.0000 </r>
       <r>    12.1371     0.0000   768.0000 </r>
       <r>    12.2889     0.0000   768.0000 </r>
       <r>    12.4407     0.0000   768.0000 </r>
       <r>    12.5926     0.0000   768.0000 </r>
       <r>    12.7444     0.0000   768.0000 </r>
       <r>    12.8963     0.0000   768.0000 </r>
      </set>
     </set>
    </array>
   </total>
  </dos>
 </calculation>
 <structure name="finalpos" >
  <crystal>
   <varray name="basis" >
    <v>      11.21912647       0.00353920       0.00043515 </v>
    <v>       0.00354058      11.21840802       0.00013074 </v>
    <v>       0.00062503       0.00018525      15.95354454 </v>
   </varray>
   <i name="volume">   2007.92469200 </i>
   <varray name="rec_basis" >
    <v>       0.08913351      -0.00002813      -0.00000349 </v>
    <v>      -0.00002812       0.08913922      -0.00000103 </v>
    <v>      -0.00000243      -0.00000073       0.06268200 </v>
   </varray>
  </crystal>
  <varray name="positions" >
   <v>       0.99972173       0.25017710       0.12182499 </v>
   <v>       0.99695774       0.24593569       0.62796843 </v>
   <v>       0.99335403       0.74943188       0.12025193 </v>
   <v>       0.00616536       0.75494847       0.63079415 </v>
   <v>       0.49963291       0.25464059       0.12090226 </v>
   <v>       0.50312948       0.25272364       0.62555754 </v>
   <v>       0.50557844       0.74500465       0.11847792 </v>
   <v>       0.49380345       0.74801000       0.62839575 </v>
   <v>       0.99844974       0.24341122       0.37649319 </v>
   <v>       0.99923537       0.25322493       0.87440879 </v>
   <v>       0.00101684       0.75732782       0.37481716 </v>
   <v>       0.99955122       0.74687784       0.87456581 </v>
   <v>       0.50350562       0.25929923       0.37892053 </v>
   <v>       0.50030175       0.24733194       0.87440137 </v>
   <v>       0.50042751       0.74012871       0.37835423 </v>
   <v>       0.49961236       0.75252708       0.87478750 </v>
   <v>       0.25121828       0.00292764       0.11945452 </v>
   <v>       0.25049795       0.00076004       0.62812581 </v>
   <v>       0.25065899       0.49538629       0.12313178 </v>
   <v>       0.25403514       0.50300168       0.62642962 </v>
   <v>       0.75059054       0.99744776       0.12247571 </v>
   <v>       0.75024817       0.00720493       0.62568612 </v>
   <v>       0.74960363       0.49909134       0.12148243 </v>
   <v>       0.74862514       0.49437665       0.62752687 </v>
   <v>       0.24731025       0.00259329       0.37956454 </v>
   <v>       0.25241461       0.00119587       0.87406218 </v>
   <v>       0.25941069       0.49922070       0.37717583 </v>
   <v>       0.24668280       0.50042907       0.87381363 </v>
   <v>       0.75842244       0.00336494       0.37646703 </v>
   <v>       0.74614959       0.99977618       0.87517668 </v>
   <v>       0.74501554       0.49460368       0.37451130 </v>
   <v>       0.75191822       0.49862741       0.87499361 </v>
   <v>       0.00017373       0.99992438       0.99915032 </v>
   <v>       0.00104240       0.00100557       0.50144406 </v>
   <v>       0.00061024       0.49949152       0.99887324 </v>
   <v>       0.00719597       0.48763550       0.49955149 </v>
   <v>       0.49739820       0.00306328       0.50002507 </v>
   <v>       0.49954195       0.49998066       0.99808772 </v>
   <v>       0.25097354       0.24931605       0.99930377 </v>
   <v>       0.25530590       0.24917572       0.50096216 </v>
   <v>       0.25186970       0.75268662       0.99988842 </v>
   <v>       0.25216493       0.75146075       0.50042108 </v>
   <v>       0.74840604       0.24766255       0.99996553 </v>
   <v>       0.74797375       0.75171396       0.99838820 </v>
   <v>       0.73720849       0.75621688       0.50104979 </v>
   <v>       0.24900101       0.24995764       0.25074761 </v>
   <v>       0.24889624       0.25250308       0.74952247 </v>
   <v>       0.23669378       0.74280545       0.24887363 </v>
   <v>       0.24804056       0.74837693       0.75140358 </v>
   <v>       0.75432469       0.25225103       0.25027774 </v>
   <v>       0.75143587       0.25082536       0.74918385 </v>
   <v>       0.75120513       0.74769740       0.25012393 </v>
   <v>       0.75237387       0.74693185       0.74955174 </v>
   <v>       0.00112895       0.00103696       0.24838248 </v>
   <v>       0.99967516       0.00007099       0.75179677 </v>
   <v>       0.99599976       0.49685568       0.25036951 </v>
   <v>       0.50805378       0.01242428       0.25136252 </v>
   <v>       0.50107476       0.00046113       0.75059008 </v>
   <v>       0.50145563       0.50011488       0.24991617 </v>
   <v>       0.50050416       0.50027516       0.74944742 </v>
   <v>       0.49897352       0.99823119       0.99962930 </v>
   <v>       0.50273564       0.49770656       0.50196866 </v>
   <v>       0.74793712       0.25132219       0.49971906 </v>
   <v>       0.99923182       0.50178182       0.74929791 </v>
   <v>       0.10585485       0.14435791       0.24952518 </v>
   <v>       0.11035183       0.13908255       0.75018057 </v>
   <v>       0.10479370       0.64502783       0.24925234 </v>
   <v>       0.11175705       0.64085984       0.75050762 </v>
   <v>       0.60652651       0.14418554       0.24939746 </v>
   <v>       0.61147531       0.13873460       0.74900187 </v>
   <v>       0.61114460       0.64028182       0.25072658 </v>
   <v>       0.61056136       0.64057495       0.74925078 </v>
   <v>       0.38898164       0.36117764       0.24999177 </v>
   <v>       0.38894104       0.36119421       0.75061266 </v>
   <v>       0.38829699       0.86133177       0.74925680 </v>
   <v>       0.89472124       0.35613657       0.25210448 </v>
   <v>       0.88844098       0.36011779       0.74865681 </v>
   <v>       0.89230676       0.85838489       0.25025259 </v>
   <v>       0.89017923       0.86036166       0.75092679 </v>
   <v>       0.35544700       0.10377146       0.25050714 </v>
   <v>       0.36122603       0.11136098       0.75051544 </v>
   <v>       0.36424576       0.62173916       0.24957453 </v>
   <v>       0.36092633       0.61184531       0.75129284 </v>
   <v>       0.85704986       0.10653944       0.24856446 </v>
   <v>       0.86115270       0.10940003       0.75162151 </v>
   <v>       0.85742936       0.60699482       0.24447792 </v>
   <v>       0.85890888       0.61112905       0.75525737 </v>
   <v>       0.14117982       0.39610827       0.25650254 </v>
   <v>       0.13943583       0.38904010       0.74348913 </v>
   <v>       0.14907837       0.89565254       0.25026121 </v>
   <v>       0.13935824       0.88949591       0.74908305 </v>
   <v>       0.64144140       0.39080866       0.24842651 </v>
   <v>       0.63859538       0.38866329       0.75115322 </v>
   <v>       0.63538351       0.88620434       0.25742290 </v>
   <v>       0.64051157       0.88776487       0.74306766 </v>
   <v>       0.36059837       0.38952114      -0.00004284 </v>
   <v>       0.35626043       0.38900240       0.50016738 </v>
   <v>       0.35909048       0.88860297       0.99482654 </v>
   <v>       0.35870690       0.89063835       0.50556946 </v>
   <v>       0.86158780       0.38850138       0.00003997 </v>
   <v>       0.85949669       0.39843542       0.49909391 </v>
   <v>       0.86134321       0.88893340       0.00021986 </v>
   <v>       0.86806356       0.87494793       0.49893491 </v>
   <v>       0.13839628       0.11143186       0.00009360 </v>
   <v>       0.13899857       0.11108562       0.50062294 </v>
   <v>       0.13971621       0.61308549       0.00729594 </v>
   <v>       0.12992543       0.61833814       0.49159110 </v>
   <v>       0.63775952       0.11155895       0.00699702 </v>
   <v>       0.63690911       0.10302714       0.49222728 </v>
   <v>       0.63879304       0.61142623       0.00119277 </v>
   <v>       0.65040610       0.60782365       0.49908226 </v>
   <v>       0.11165541       0.36100470       0.00117717 </v>
   <v>       0.10842493       0.35749729       0.50039380 </v>
   <v>       0.11022750       0.86021316       0.00197970 </v>
   <v>       0.11361753       0.86310864       0.49814919 </v>
   <v>       0.61073141       0.36143214       0.00005578 </v>
   <v>       0.60836293       0.35759776       0.50061200 </v>
   <v>       0.61190478       0.85994214       0.00049758 </v>
   <v>       0.60641004       0.85614411       0.50007299 </v>
   <v>       0.38731211       0.13968394       0.00277921 </v>
   <v>       0.39119252       0.14062240       0.49624042 </v>
   <v>       0.38896825       0.63938489       0.00004138 </v>
   <v>       0.38671921       0.63991945       0.49886913 </v>
   <v>       0.88923036       0.13821466       0.00001853 </v>
   <v>       0.88806285       0.13374341       0.49918553 </v>
   <v>       0.88800534       0.63856029       0.00045635 </v>
   <v>       0.00003027       0.99907701       0.12507811 </v>
   <v>       0.99914469       0.99953741       0.62544848 </v>
   <v>       0.00105965       0.49642312       0.12752562 </v>
   <v>       0.98945249       0.52078683       0.61726181 </v>
   <v>       0.48721044       0.97844474       0.13433134 </v>
   <v>       0.50027002       0.00334724       0.62251862 </v>
   <v>       0.49891308       0.49982565       0.12478449 </v>
   <v>       0.49841915       0.50221091       0.62697431 </v>
   <v>       0.99980327       0.00034616       0.37382880 </v>
   <v>       0.00201098       0.99853865       0.87558405 </v>
   <v>       0.98512559       0.51559084       0.37707808 </v>
   <v>       0.00528585       0.49990603       0.87725931 </v>
   <v>       0.48255343       0.98148028       0.37107303 </v>
   <v>       0.50491050       0.00012977       0.87300435 </v>
   <v>       0.49879106       0.50010084       0.37294506 </v>
   <v>       0.50069482       0.50119772       0.87539709 </v>
   <v>       0.24872501       0.24959457       0.37541542 </v>
   <v>       0.24827919       0.25169265       0.87482252 </v>
   <v>       0.26406485       0.76325322       0.36964127 </v>
   <v>       0.24683025       0.74832680       0.87582675 </v>
   <v>       0.75138351       0.24910334       0.37194775 </v>
   <v>       0.74845396       0.24761247       0.87606223 </v>
   <v>       0.76493973       0.73750515       0.37857592 </v>
   <v>       0.74748064       0.75284273       0.87477940 </v>
   <v>       0.24782534       0.25360701       0.12666951 </v>
   <v>       0.25239018       0.24623262       0.62390082 </v>
   <v>       0.26425998       0.76369637       0.12940904 </v>
   <v>       0.24801513       0.74615945       0.62445677 </v>
   <v>       0.75270938       0.25247576       0.12605028 </v>
   <v>       0.75048959       0.24578789       0.62562903 </v>
   <v>       0.74920462       0.75374712       0.12607701 </v>
   <v>       0.76484163       0.73769149       0.62106665 </v>
  </varray>
 </structure>
</modeling>
