       N       E                     dE             d eps       ncg     rms          rms(c)
DAV:   1    -0.105395768594E+04   -0.10540E+04   -0.15284E-02 13384   0.293E-01    0.347E-02
RMM:   2    -0.105395768362E+04    0.23194E-05   -0.28479E-05  6651   0.876E-03    0.606E-02
RMM:   3    -0.105395768396E+04   -0.33245E-06   -0.71775E-06  6010   0.498E-03    0.513E-03
RMM:   4    -0.105395768403E+04   -0.71086E-07   -0.13334E-06  2839   0.194E-03    0.312E-03
RMM:   5    -0.105395768408E+04   -0.58659E-07   -0.93278E-07  2833   0.219E-03    0.257E-03
RMM:   6    -0.105395768412E+04   -0.33047E-07   -0.38759E-07  2222   0.180E-03    0.144E-03
RMM:   7    -0.105395768416E+04   -0.43030E-07   -0.31697E-07  1983   0.189E-03    0.752E-04
RMM:   8    -0.105395768416E+04    0.21391E-08   -0.10711E-07  1652   0.177E-03
   1 F= -.10539577E+04 E0= -.10539577E+04  d E =-.105396E+04  mag=    80.0000
       N       E                     dE             d eps       ncg     rms          rms(c)
DAV:   1    -0.105395757252E+04    0.11164E-03   -0.36875E-01 12480   0.718E-01    0.287E-01
RMM:   2    -0.105395876872E+04   -0.11962E-02   -0.10956E-02 12360   0.146E-01    0.213E-01
RMM:   3    -0.105395883036E+04   -0.61642E-04   -0.58754E-04 10540   0.441E-02    0.126E-01
RMM:   4    -0.105395877625E+04    0.54114E-04   -0.12575E-04  7438   0.161E-02    0.739E-02
RMM:   5    -0.105395875869E+04    0.17564E-04   -0.86718E-05  7295   0.123E-02    0.248E-02
RMM:   6    -0.105395876021E+04   -0.15265E-05   -0.17656E-05  7015   0.733E-03    0.164E-02
RMM:   7    -0.105395876050E+04   -0.28277E-06   -0.80225E-06  6100   0.380E-03    0.897E-03
RMM:   8    -0.105395876042E+04    0.71130E-07   -0.38326E-06  5371   0.359E-03
   2 F= -.10539588E+04 E0= -.10539588E+04  d E =-.107627E-02  mag=    80.0000
       N       E                     dE             d eps       ncg     rms          rms(c)
DAV:   1    -0.105395876165E+04   -0.11554E-05   -0.80577E-04 12376   0.337E-02    0.137E-02
RMM:   2    -0.105395876425E+04   -0.25982E-05   -0.24860E-05  6443   0.761E-03    0.119E-02
RMM:   3    -0.105395876479E+04   -0.54596E-06   -0.38748E-06  5743   0.359E-03    0.785E-03
RMM:   4    -0.105395876473E+04    0.66575E-07   -0.51583E-07  2509   0.193E-03    0.469E-03
RMM:   5    -0.105395876461E+04    0.12317E-06   -0.31008E-07  2227   0.186E-03    0.156E-03
RMM:   6    -0.105395876460E+04    0.22119E-08   -0.56518E-08  1359   0.180E-03    0.617E-04
RMM:   7    -0.105395876460E+04    0.42346E-08   -0.10929E-08  1236   0.180E-03    0.240E-04
RMM:   8    -0.105395876460E+04    0.19209E-08   -0.63105E-09  1040   0.180E-03
   3 F= -.10539588E+04 E0= -.10539588E+04  d E =-.108044E-02  mag=    80.0000
       N       E                     dE             d eps       ncg     rms          rms(c)
DAV:   1    -0.105395877871E+04   -0.14113E-04   -0.26262E-01 12432   0.609E-01    0.186E-01
RMM:   2    -0.105395955153E+04   -0.77282E-03   -0.70968E-03 12353   0.113E-01    0.121E-01
RMM:   3    -0.105395958310E+04   -0.31565E-04   -0.33959E-04  9152   0.369E-02    0.729E-02
RMM:   4    -0.105395956213E+04    0.20969E-04   -0.95873E-05  7230   0.137E-02    0.372E-02
RMM:   5    -0.105395955986E+04    0.22684E-05   -0.38049E-05  7057   0.942E-03    0.333E-02
RMM:   6    -0.105395956103E+04   -0.11756E-05   -0.14361E-05  6821   0.611E-03    0.127E-02
RMM:   7    -0.105395956158E+04   -0.54030E-06   -0.60662E-06  5716   0.382E-03    0.739E-03
RMM:   8    -0.105395956180E+04   -0.22390E-06   -0.35586E-06  4909   0.308E-03
   4 F= -.10539596E+04 E0= -.10539596E+04  d E =-.797202E-03  mag=    80.0000
       N       E                     dE             d eps       ncg     rms          rms(c)
DAV:   1    -0.105395924008E+04    0.32150E-03   -0.19250E-01 12432   0.521E-01    0.160E-01
RMM:   2    -0.105395980762E+04   -0.56754E-03   -0.52239E-03 12340   0.965E-02    0.104E-01
RMM:   3    -0.105395982932E+04   -0.21699E-04   -0.24007E-04  8316   0.318E-02    0.631E-02
RMM:   4    -0.105395981526E+04    0.14058E-04   -0.76381E-05  7179   0.127E-02    0.330E-02
RMM:   5    -0.105395981368E+04    0.15780E-05   -0.33759E-05  7058   0.897E-03    0.359E-02
RMM:   6    -0.105395981466E+04   -0.97908E-06   -0.13681E-05  6692   0.587E-03    0.108E-02
RMM:   7    -0.105395981517E+04   -0.51326E-06   -0.56465E-06  5578   0.374E-03    0.739E-03
RMM:   8    -0.105395981540E+04   -0.22714E-06   -0.34086E-06  4844   0.301E-03
   5 F= -.10539598E+04 E0= -.10539598E+04  d E =-.105080E-02  mag=    80.0000
       N       E                     dE             d eps       ncg     rms          rms(c)
DAV:   1    -0.105395987841E+04   -0.63235E-04   -0.23246E-01 12656   0.569E-01    0.151E-01
RMM:   2    -0.105396049232E+04   -0.61391E-03   -0.61493E-03 12364   0.103E-01    0.101E-01
RMM:   3    -0.105396050642E+04   -0.14098E-04   -0.29135E-04  8525   0.343E-02    0.629E-02
RMM:   4    -0.105396049283E+04    0.13586E-04   -0.78032E-05  7128   0.129E-02    0.350E-02
RMM:   5    -0.105396049112E+04    0.17118E-05   -0.36429E-05  7028   0.927E-03    0.398E-02
RMM:   6    -0.105396049222E+04   -0.11032E-05   -0.15100E-05  6728   0.621E-03    0.983E-03
RMM:   7    -0.105396049296E+04   -0.73573E-06   -0.62015E-06  5626   0.385E-03    0.709E-03
RMM:   8    -0.105396049334E+04   -0.38526E-06   -0.36638E-06  4927   0.312E-03
   6 F= -.10539605E+04 E0= -.10539605E+04  d E =-.677945E-03  mag=    80.0000
