       N       E                     dE             d eps       ncg     rms          rms(c)
DAV:   1    -0.993414320521E+03   -0.99341E+03   -0.14690E-01 13632   0.901E-01    0.100E-01
RMM:   2    -0.993414355465E+03   -0.34944E-04   -0.14126E-04  7720   0.219E-02    0.159E-01
RMM:   3    -0.993414368593E+03   -0.13127E-04   -0.38181E-05  7280   0.118E-02    0.413E-02
RMM:   4    -0.993414386370E+03   -0.17778E-04   -0.19801E-05  6901   0.622E-03    0.321E-02
RMM:   5    -0.993414404483E+03   -0.18112E-04   -0.11000E-05  6525   0.504E-03    0.193E-02
RMM:   6    -0.993414437324E+03   -0.32841E-04   -0.15170E-05  5990   0.498E-03    0.207E-02
RMM:   7    -0.993414479043E+03   -0.41719E-04   -0.19520E-05  5881   0.519E-03    0.159E-02
RMM:   8    -0.993414524832E+03   -0.45789E-04   -0.24698E-05  5593   0.535E-03
   1 F= -.99341452E+03 E0= -.99340335E+03  d E =-.993415E+03  mag=   116.0000
       N       E                     dE             d eps       ncg     rms          rms(c)
DAV:   1    -0.993417428200E+03   -0.29492E-02   -0.58126E+00 12336   0.289E+00    0.128E+00
RMM:   2    -0.993437475097E+03   -0.20047E-01   -0.16252E-01 12918   0.569E-01    0.787E-01
RMM:   3    -0.993439068155E+03   -0.15931E-02   -0.88829E-03 13356   0.156E-01    0.408E-01
RMM:   4    -0.993438191922E+03    0.87623E-03   -0.22251E-03 13691   0.555E-02    0.222E-01
RMM:   5    -0.993437992496E+03    0.19943E-03   -0.83711E-04 12170   0.347E-02    0.106E-01
RMM:   6    -0.993438017154E+03   -0.24658E-04   -0.11506E-04  7605   0.173E-02    0.670E-02
RMM:   7    -0.993438040977E+03   -0.23823E-04   -0.50900E-05  7434   0.108E-02    0.385E-02
RMM:   8    -0.993438067648E+03   -0.26671E-04   -0.33658E-05  7347   0.926E-03
   2 F= -.99343807E+03 E0= -.99342692E+03  d E =-.235428E-01  mag=   116.0000
       N       E                     dE             d eps       ncg     rms          rms(c)
DAV:   1    -0.993417671174E+03    0.20370E-01   -0.86495E+00 12288   0.353E+00    0.157E+00
RMM:   2    -0.993447579934E+03   -0.29909E-01   -0.24268E-01 12927   0.694E-01    0.958E-01
RMM:   3    -0.993449939264E+03   -0.23593E-02   -0.13338E-02 13586   0.190E-01    0.497E-01
RMM:   4    -0.993448625371E+03    0.13139E-02   -0.33225E-03 13909   0.670E-02    0.271E-01
RMM:   5    -0.993448322596E+03    0.30277E-03   -0.12340E-03 13026   0.416E-02    0.126E-01
RMM:   6    -0.993448351147E+03   -0.28550E-04   -0.17555E-04  8251   0.201E-02    0.803E-02
RMM:   7    -0.993448377940E+03   -0.26794E-04   -0.73153E-05  7491   0.127E-02    0.457E-02
RMM:   8    -0.993448407103E+03   -0.29163E-04   -0.47637E-05  7407   0.109E-02
   3 F= -.99344841E+03 E0= -.99343729E+03  d E =-.338823E-01  mag=   116.0000
       N       E                     dE             d eps       ncg     rms          rms(c)
DAV:   1    -0.993451216522E+03   -0.28386E-02   -0.29273E+00 12384   0.204E+00    0.799E-01
RMM:   2    -0.993461260518E+03   -0.10044E-01   -0.79940E-02 12772   0.402E-01    0.511E-01
RMM:   3    -0.993462034976E+03   -0.77446E-03   -0.47630E-03 13567   0.108E-01    0.295E-01
RMM:   4    -0.993461673584E+03    0.36139E-03   -0.83716E-04 12337   0.351E-02    0.161E-01
RMM:   5    -0.993461590906E+03    0.82679E-04   -0.50093E-04 10681   0.258E-02    0.540E-02
RMM:   6    -0.993461606207E+03   -0.15302E-04   -0.59862E-05  7432   0.139E-02    0.393E-02
RMM:   7    -0.993461617006E+03   -0.10799E-04   -0.32207E-05  7320   0.754E-03    0.253E-02
RMM:   8    -0.993461630891E+03   -0.13885E-04   -0.20390E-05  7254   0.777E-03
   4 F= -.99346163E+03 E0= -.99345048E+03  d E =-.132238E-01  mag=   116.0000
       N       E                     dE             d eps       ncg     rms          rms(c)
DAV:   1    -0.993438698344E+03    0.22919E-01   -0.93746E+00 12288   0.365E+00    0.143E+00
RMM:   2    -0.993470729514E+03   -0.32031E-01   -0.25509E-01 12770   0.719E-01    0.913E-01
RMM:   3    -0.993473196522E+03   -0.24670E-02   -0.15091E-02 14047   0.193E-01    0.521E-01
RMM:   4    -0.993472003198E+03    0.11933E-02   -0.25908E-03 14772   0.604E-02    0.286E-01
RMM:   5    -0.993471681862E+03    0.32134E-03   -0.15687E-03 13203   0.420E-02    0.951E-02
RMM:   6    -0.993471696992E+03   -0.15130E-04   -0.14733E-04  7983   0.200E-02    0.621E-02
RMM:   7    -0.993471710037E+03   -0.13045E-04   -0.64935E-05  7493   0.113E-02    0.383E-02
RMM:   8    -0.993471724409E+03   -0.14372E-04   -0.43946E-05  7369   0.881E-03
   5 F= -.99347172E+03 E0= -.99346051E+03  d E =-.233173E-01  mag=   116.0000
       N       E                     dE             d eps       ncg     rms          rms(c)
DAV:   1    -0.993472756514E+03   -0.10465E-02   -0.21595E+00 12528   0.173E+00    0.607E-01
RMM:   2    -0.993480264624E+03   -0.75081E-02   -0.57433E-02 12670   0.334E-01    0.379E-01
RMM:   3    -0.993480874914E+03   -0.61029E-03   -0.34806E-03 13171   0.966E-02    0.207E-01
RMM:   4    -0.993480722719E+03    0.15220E-03   -0.45271E-04 10561   0.276E-02    0.124E-01
RMM:   5    -0.993480671124E+03    0.51595E-04   -0.34660E-04  9228   0.209E-02    0.436E-02
RMM:   6    -0.993480683264E+03   -0.12140E-04   -0.48526E-05  7322   0.125E-02    0.281E-02
RMM:   7    -0.993480690145E+03   -0.68812E-05   -0.23988E-05  7232   0.677E-03    0.195E-02
RMM:   8    -0.993480698131E+03   -0.79862E-05   -0.15264E-05  7138   0.629E-03
   6 F= -.99348070E+03 E0= -.99346944E+03  d E =-.897372E-02  mag=   116.0000
       N       E                     dE             d eps       ncg     rms          rms(c)
DAV:   1    -0.993421361443E+03    0.59329E-01   -0.19425E+01 12352   0.519E+00    0.182E+00
RMM:   2    -0.993488682110E+03   -0.67321E-01   -0.51413E-01 12670   0.100E+00    0.114E+00
RMM:   3    -0.993494216342E+03   -0.55342E-02   -0.30986E-02 13931   0.289E-01    0.620E-01
RMM:   4    -0.993492798997E+03    0.14173E-02   -0.40770E-03 15530   0.784E-02    0.369E-01
RMM:   5    -0.993492221284E+03    0.57771E-03   -0.29576E-03 12938   0.527E-02    0.122E-01
RMM:   6    -0.993492250245E+03   -0.28961E-04   -0.29470E-04  9502   0.276E-02    0.683E-02
RMM:   7    -0.993492267843E+03   -0.17598E-04   -0.10646E-04  7640   0.130E-02    0.433E-02
RMM:   8    -0.993492286362E+03   -0.18519E-04   -0.63353E-05  7496   0.108E-02
   7 F= -.99349229E+03 E0= -.99348089E+03  d E =-.205620E-01  mag=   116.0000
       N       E                     dE             d eps       ncg     rms          rms(c)
DAV:   1    -0.993491483179E+03    0.78466E-03   -0.22601E+00 12864   0.175E+00    0.587E-01
RMM:   2    -0.993499104479E+03   -0.76213E-02   -0.58109E-02 12770   0.330E-01    0.345E-01
RMM:   3    -0.993499710071E+03   -0.60559E-03   -0.34453E-03 12995   0.957E-02    0.184E-01
RMM:   4    -0.993499589032E+03    0.12104E-03   -0.42851E-04 10410   0.267E-02    0.114E-01
RMM:   5    -0.993499560070E+03    0.28962E-04   -0.34011E-04  9109   0.207E-02    0.375E-02
RMM:   6    -0.993499578948E+03   -0.18878E-04   -0.51506E-05  7329   0.124E-02    0.292E-02
RMM:   7    -0.993499588454E+03   -0.95065E-05   -0.26459E-05  7247   0.709E-03    0.181E-02
RMM:   8    -0.993499602070E+03   -0.13615E-04   -0.17752E-05  7152   0.684E-03
   8 F= -.99349960E+03 E0= -.99348823E+03  d E =-.731571E-02  mag=   116.0000
       N       E                     dE             d eps       ncg     rms          rms(c)
DAV:   1    -0.993441641701E+03    0.57947E-01   -0.20317E+01 12728   0.526E+00    0.177E+00
RMM:   2    -0.993509630596E+03   -0.67989E-01   -0.51973E-01 12776   0.990E-01    0.104E+00
RMM:   3    -0.993515058514E+03   -0.54279E-02   -0.30398E-02 13710   0.284E-01    0.552E-01
RMM:   4    -0.993513885259E+03    0.11733E-02   -0.37431E-03 15508   0.746E-02    0.337E-01
RMM:   5    -0.993513413501E+03    0.47176E-03   -0.28291E-03 12956   0.517E-02    0.108E-01
RMM:   6    -0.993513460369E+03   -0.46868E-04   -0.29328E-04  9402   0.276E-02    0.614E-02
RMM:   7    -0.993513484317E+03   -0.23948E-04   -0.10148E-04  7620   0.134E-02    0.383E-02
RMM:   8    -0.993513509533E+03   -0.25217E-04   -0.70001E-05  7521   0.116E-02
   9 F= -.99351351E+03 E0= -.99350224E+03  d E =-.212232E-01  mag=   116.0000
       N       E                     dE             d eps       ncg     rms          rms(c)
DAV:   1    -0.993215178999E+03    0.29831E+00   -0.81245E+01 12720   0.105E+01    0.356E+00
RMM:   2    -0.993488399095E+03   -0.27322E+00   -0.20985E+00 12770   0.199E+00    0.210E+00
RMM:   3    -0.993510263503E+03   -0.21864E-01   -0.12329E-01 13793   0.575E-01    0.111E+00
RMM:   4    -0.993505556711E+03    0.47068E-02   -0.15339E-02 16486   0.151E-01    0.676E-01
RMM:   5    -0.993503604607E+03    0.19521E-02   -0.11079E-02 14116   0.102E-01    0.220E-01
RMM:   6    -0.993503797695E+03   -0.19309E-03   -0.13960E-03 14542   0.510E-02    0.113E-01
RMM:   7    -0.993503869478E+03   -0.71784E-04   -0.41953E-04 10813   0.204E-02    0.730E-02
RMM:   8    -0.993503938917E+03   -0.69439E-04   -0.23239E-04  8682   0.167E-02
  10 F= -.99350394E+03 E0= -.99349293E+03  d E =-.116526E-01  mag=   116.0000
       N       E                     dE             d eps       ncg     rms          rms(c)
DAV:   1    -0.993373466444E+03    0.13040E+00   -0.40530E+01 12608   0.743E+00    0.249E+00
RMM:   2    -0.993508483966E+03   -0.13502E+00   -0.10252E+00 12735   0.140E+00    0.148E+00
RMM:   3    -0.993519574823E+03   -0.11091E-01   -0.59927E-02 13706   0.404E-01    0.795E-01
RMM:   4    -0.993517178373E+03    0.23964E-02   -0.73258E-03 15594   0.105E-01    0.490E-01
RMM:   5    -0.993516048625E+03    0.11297E-02   -0.54121E-03 13005   0.713E-02    0.145E-01
RMM:   6    -0.993516095550E+03   -0.46925E-04   -0.51804E-04 11313   0.373E-02    0.778E-02
RMM:   7    -0.993516106696E+03   -0.11146E-04   -0.15134E-04  7860   0.136E-02    0.461E-02
RMM:   8    -0.993516111983E+03   -0.52872E-05   -0.86254E-05  7656   0.116E-02
  11 F= -.99351611E+03 E0= -.99350492E+03  d E =-.238256E-01  mag=   116.0000
       N       E                     dE             d eps       ncg     rms          rms(c)
DAV:   1    -0.993506154824E+03    0.99519E-02   -0.56542E+00 12608   0.275E+00    0.965E-01
RMM:   2    -0.993525560744E+03   -0.19406E-01   -0.14315E-01 12759   0.522E-01    0.552E-01
RMM:   3    -0.993527201167E+03   -0.16404E-02   -0.84289E-03 13217   0.153E-01    0.266E-01
RMM:   4    -0.993526844981E+03    0.35619E-03   -0.11724E-03 12644   0.438E-02    0.166E-01
RMM:   5    -0.993526704898E+03    0.14008E-03   -0.57820E-04 10778   0.274E-02    0.833E-02
RMM:   6    -0.993526715442E+03   -0.10544E-04   -0.10422E-04  7500   0.161E-02    0.428E-02
RMM:   7    -0.993526725168E+03   -0.97254E-05   -0.38254E-05  7297   0.975E-03    0.270E-02
RMM:   8    -0.993526733399E+03   -0.82312E-05   -0.23594E-05  7217   0.795E-03
  12 F= -.99352673E+03 E0= -.99351559E+03  d E =-.106214E-01  mag=   116.0000
       N       E                     dE             d eps       ncg     rms          rms(c)
DAV:   1    -0.993422343479E+03    0.10438E+00   -0.31374E+01 12448   0.649E+00    0.227E+00
RMM:   2    -0.993531392371E+03   -0.10905E+00   -0.80332E-01 12763   0.123E+00    0.131E+00
RMM:   3    -0.993540523575E+03   -0.91312E-02   -0.48188E-02 13679   0.362E-01    0.625E-01
RMM:   4    -0.993538480300E+03    0.20433E-02   -0.70075E-03 15458   0.103E-01    0.393E-01
RMM:   5    -0.993537692307E+03    0.78799E-03   -0.31924E-03 13344   0.571E-02    0.207E-01
RMM:   6    -0.993537732939E+03   -0.40632E-04   -0.68611E-04 12088   0.327E-02    0.821E-02
RMM:   7    -0.993537766439E+03   -0.33500E-04   -0.14363E-04  7978   0.159E-02    0.506E-02
RMM:   8    -0.993537803665E+03   -0.37226E-04   -0.98417E-05  7634   0.139E-02
  13 F= -.99353780E+03 E0= -.99352678E+03  d E =-.216917E-01  mag=   116.0000
       N       E                     dE             d eps       ncg     rms          rms(c)
DAV:   1    -0.993523664505E+03    0.14102E-01   -0.65670E+00 12624   0.297E+00    0.979E-01
RMM:   2    -0.993546227701E+03   -0.22563E-01   -0.17091E-01 12642   0.571E-01    0.578E-01
RMM:   3    -0.993548064925E+03   -0.18372E-02   -0.10616E-02 13347   0.168E-01    0.290E-01
RMM:   4    -0.993547716061E+03    0.34886E-03   -0.12677E-03 13501   0.443E-02    0.181E-01
RMM:   5    -0.993547584575E+03    0.13149E-03   -0.93777E-04 11356   0.313E-02    0.695E-02
RMM:   6    -0.993547618741E+03   -0.34166E-04   -0.12016E-04  7586   0.181E-02    0.409E-02
RMM:   7    -0.993547637070E+03   -0.18329E-04   -0.48508E-05  7391   0.952E-03    0.284E-02
RMM:   8    -0.993547660083E+03   -0.23013E-04   -0.33580E-05  7338   0.891E-03
  14 F= -.99354766E+03 E0= -.99353659E+03  d E =-.985642E-02  mag=   116.0000
       N       E                     dE             d eps       ncg     rms          rms(c)
DAV:   1    -0.993494827892E+03    0.52809E-01   -0.16147E+01 12600   0.465E+00    0.153E+00
RMM:   2    -0.993550232530E+03   -0.55405E-01   -0.41993E-01 12646   0.896E-01    0.900E-01
RMM:   3    -0.993554715744E+03   -0.44832E-02   -0.25874E-02 13591   0.262E-01    0.454E-01
RMM:   4    -0.993553816327E+03    0.89942E-03   -0.30731E-03 15191   0.679E-02    0.283E-01
RMM:   5    -0.993553427803E+03    0.38852E-03   -0.22011E-03 12367   0.452E-02    0.113E-01
RMM:   6    -0.993553471420E+03   -0.43617E-04   -0.27062E-04  9060   0.254E-02    0.576E-02
RMM:   7    -0.993553490954E+03   -0.19534E-04   -0.79696E-05  7532   0.121E-02    0.364E-02
RMM:   8    -0.993553516393E+03   -0.25439E-04   -0.53332E-05  7462   0.106E-02
  15 F= -.99355352E+03 E0= -.99354238E+03  d E =-.157127E-01  mag=   116.0000
       N       E                     dE             d eps       ncg     rms          rms(c)
DAV:   1    -0.993525648791E+03    0.27842E-01   -0.98670E+00 12728   0.364E+00    0.127E+00
RMM:   2    -0.993560424036E+03   -0.34775E-01   -0.25375E-01 12729   0.693E-01    0.721E-01
RMM:   3    -0.993563441629E+03   -0.30176E-02   -0.15188E-02 13505   0.202E-01    0.341E-01
RMM:   4    -0.993562916839E+03    0.52479E-03   -0.20056E-03 14342   0.543E-02    0.207E-01
RMM:   5    -0.993562755630E+03    0.16121E-03   -0.11830E-03 11955   0.350E-02    0.787E-02
RMM:   6    -0.993562795398E+03   -0.39769E-04   -0.14689E-04  7747   0.194E-02    0.427E-02
RMM:   7    -0.993562817221E+03   -0.21823E-04   -0.60170E-05  7417   0.112E-02    0.311E-02
RMM:   8    -0.993562841881E+03   -0.24660E-04   -0.41567E-05  7371   0.101E-02
  16 F= -.99356284E+03 E0= -.99355164E+03  d E =-.932549E-02  mag=   116.0000
       N       E                     dE             d eps       ncg     rms          rms(c)
DAV:   1    -0.993536829499E+03    0.25988E-01   -0.75503E+00 12688   0.319E+00    0.111E+00
RMM:   2    -0.993563464020E+03   -0.26635E-01   -0.19424E-01 12726   0.606E-01    0.632E-01
RMM:   3    -0.993565781322E+03   -0.23173E-02   -0.11625E-02 13411   0.177E-01    0.298E-01
RMM:   4    -0.993565382687E+03    0.39864E-03   -0.15331E-03 13782   0.479E-02    0.182E-01
RMM:   5    -0.993565263207E+03    0.11948E-03   -0.89875E-04 11385   0.312E-02    0.685E-02
RMM:   6    -0.993565297080E+03   -0.33873E-04   -0.11520E-04  7548   0.177E-02    0.381E-02
RMM:   7    -0.993565315093E+03   -0.18013E-04   -0.49958E-05  7374   0.101E-02    0.277E-02
RMM:   8    -0.993565335759E+03   -0.20666E-04   -0.32819E-05  7310   0.929E-03
  17 F= -.99356534E+03 E0= -.99355408E+03  d E =-.118194E-01  mag=   116.0000
       N       E                     dE             d eps       ncg     rms          rms(c)
DAV:   1    -0.993546378007E+03    0.18937E-01   -0.59531E+00 12752   0.285E+00    0.120E+00
RMM:   2    -0.993570607933E+03   -0.24230E-01   -0.15424E-01 12801   0.547E-01    0.742E-01
RMM:   3    -0.993573145947E+03   -0.25380E-02   -0.90903E-03 13434   0.158E-01    0.341E-01
RMM:   4    -0.993572749420E+03    0.39653E-03   -0.13948E-03 14011   0.477E-02    0.214E-01
RMM:   5    -0.993572599315E+03    0.15011E-03   -0.84958E-04 11611   0.311E-02    0.935E-02
RMM:   6    -0.993572620657E+03   -0.21342E-04   -0.12176E-04  7566   0.179E-02    0.499E-02
RMM:   7    -0.993572635746E+03   -0.15089E-04   -0.51315E-05  7384   0.104E-02    0.305E-02
RMM:   8    -0.993572650781E+03   -0.15035E-04   -0.34319E-05  7291   0.972E-03
  18 F= -.99357265E+03 E0= -.99356143E+03  d E =-.731502E-02  mag=   116.0000
       N       E                     dE             d eps       ncg     rms          rms(c)
DAV:   1    -0.993562384823E+03    0.10251E-01   -0.26838E+00 12800   0.191E+00    0.805E-01
RMM:   2    -0.993573339488E+03   -0.10955E-01   -0.69659E-02 12816   0.367E-01    0.496E-01
RMM:   3    -0.993574492768E+03   -0.11533E-02   -0.41040E-03 13059   0.106E-01    0.228E-01
RMM:   4    -0.993574320882E+03    0.17189E-03   -0.60341E-04 11271   0.325E-02    0.143E-01
RMM:   5    -0.993574261883E+03    0.58999E-04   -0.39390E-04  9453   0.233E-02    0.647E-02
RMM:   6    -0.993574278257E+03   -0.16375E-04   -0.71182E-05  7454   0.138E-02    0.400E-02
RMM:   7    -0.993574288717E+03   -0.10459E-04   -0.31887E-05  7277   0.854E-03    0.241E-02
RMM:   8    -0.993574300128E+03   -0.11411E-04   -0.22835E-05  7228   0.762E-03
  19 F= -.99357430E+03 E0= -.99356311E+03  d E =-.896437E-02  mag=   116.0000
       N       E                     dE             d eps       ncg     rms          rms(c)
DAV:   1    -0.993559540243E+03    0.14748E-01   -0.56681E+00 12424   0.279E+00    0.946E-01
RMM:   2    -0.993579305239E+03   -0.19765E-01   -0.14540E-01 12649   0.528E-01    0.568E-01
RMM:   3    -0.993581021823E+03   -0.17166E-02   -0.86712E-03 13320   0.154E-01    0.281E-01
RMM:   4    -0.993580683056E+03    0.33877E-03   -0.11059E-03 12922   0.416E-02    0.173E-01
RMM:   5    -0.993580572238E+03    0.11082E-03   -0.73965E-04 11040   0.284E-02    0.657E-02
RMM:   6    -0.993580595530E+03   -0.23292E-04   -0.86816E-05  7488   0.163E-02    0.346E-02
RMM:   7    -0.993580605696E+03   -0.10166E-04   -0.39123E-05  7322   0.849E-03    0.224E-02
RMM:   8    -0.993580616617E+03   -0.10920E-04   -0.22593E-05  7223   0.791E-03
  20 F= -.99358062E+03 E0= -.99356945E+03  d E =-.631649E-02  mag=   116.0000
       N       E                     dE             d eps       ncg     rms          rms(c)
DAV:   1    -0.993558302231E+03    0.22303E-01   -0.66709E+00 12408   0.302E+00    0.103E+00
RMM:   2    -0.993581599138E+03   -0.23297E-01   -0.17156E-01 12642   0.574E-01    0.617E-01
RMM:   3    -0.993583620354E+03   -0.20212E-02   -0.10296E-02 13383   0.167E-01    0.306E-01
RMM:   4    -0.993583221559E+03    0.39879E-03   -0.13256E-03 13524   0.451E-02    0.189E-01
RMM:   5    -0.993583089453E+03    0.13211E-03   -0.87292E-04 11305   0.301E-02    0.721E-02
RMM:   6    -0.993583115628E+03   -0.26176E-04   -0.10119E-04  7516   0.172E-02    0.375E-02
RMM:   7    -0.993583126947E+03   -0.11319E-04   -0.43305E-05  7335   0.906E-03    0.244E-02
RMM:   8    -0.993583139000E+03   -0.12053E-04   -0.25392E-05  7204   0.825E-03
  21 F= -.99358314E+03 E0= -.99357201E+03  d E =-.883887E-02  mag=   116.0000
       N       E                     dE             d eps       ncg     rms          rms(c)
DAV:   1    -0.993572157956E+03    0.10969E-01   -0.47275E+00 12544   0.256E+00    0.834E-01
RMM:   2    -0.993587292046E+03   -0.15134E-01   -0.12291E-01 12732   0.480E-01    0.487E-01
RMM:   3    -0.993588330250E+03   -0.10382E-02   -0.70037E-03 13458   0.140E-01    0.243E-01
RMM:   4    -0.993588024352E+03    0.30590E-03   -0.10588E-03 13339   0.401E-02    0.151E-01
RMM:   5    -0.993587917201E+03    0.10715E-03   -0.52629E-04 10799   0.253E-02    0.742E-02
RMM:   6    -0.993587929077E+03   -0.11876E-04   -0.92538E-05  7458   0.150E-02    0.416E-02
RMM:   7    -0.993587940474E+03   -0.11397E-04   -0.41406E-05  7296   0.944E-03    0.272E-02
RMM:   8    -0.993587951210E+03   -0.10736E-04   -0.27615E-05  7254   0.849E-03
  22 F= -.99358795E+03 E0= -.99357677E+03  d E =-.481221E-02  mag=   116.0000
       N       E                     dE             d eps       ncg     rms          rms(c)
DAV:   1    -0.993568310918E+03    0.19630E-01   -0.64787E+00 12416   0.299E+00    0.975E-01
RMM:   2    -0.993589033864E+03   -0.20723E-01   -0.16787E-01 12730   0.561E-01    0.569E-01
RMM:   3    -0.993590468194E+03   -0.14343E-02   -0.95715E-03 13534   0.164E-01    0.283E-01
RMM:   4    -0.993590048173E+03    0.42002E-03   -0.14527E-03 14142   0.465E-02    0.176E-01
RMM:   5    -0.993589892207E+03    0.15597E-03   -0.68244E-04 11384   0.276E-02    0.860E-02
RMM:   6    -0.993589902665E+03   -0.10458E-04   -0.11307E-04  7513   0.161E-02    0.448E-02
RMM:   7    -0.993589914149E+03   -0.11484E-04   -0.47794E-05  7333   0.102E-02    0.290E-02
RMM:   8    -0.993589924054E+03   -0.99044E-05   -0.30973E-05  7283   0.892E-03
  23 F= -.99358992E+03 E0= -.99357868E+03  d E =-.678505E-02  mag=   116.0000
       N       E                     dE             d eps       ncg     rms          rms(c)
DAV:   1    -0.993583075323E+03    0.68388E-02   -0.32166E+00 12912   0.210E+00    0.740E-01
RMM:   2    -0.993592876418E+03   -0.98011E-02   -0.85502E-02 12696   0.402E-01    0.429E-01
RMM:   3    -0.993593555344E+03   -0.67893E-03   -0.51529E-03 13349   0.119E-01    0.234E-01
RMM:   4    -0.993593344052E+03    0.21129E-03   -0.80226E-04 12655   0.349E-02    0.145E-01
RMM:   5    -0.993593274367E+03    0.69685E-04   -0.43271E-04  9610   0.243E-02    0.658E-02
RMM:   6    -0.993593294920E+03   -0.20553E-04   -0.10774E-04  7527   0.156E-02    0.591E-02
RMM:   7    -0.993593308284E+03   -0.13364E-04   -0.42940E-05  7261   0.106E-02    0.301E-02
RMM:   8    -0.993593323470E+03   -0.15186E-04   -0.28710E-05  7211   0.848E-03
  24 F= -.99359332E+03 E0= -.99358202E+03  d E =-.339942E-02  mag=   116.0000
       N       E                     dE             d eps       ncg     rms          rms(c)
DAV:   1    -0.993583969307E+03    0.93390E-02   -0.32645E+00 12672   0.212E+00    0.744E-01
RMM:   2    -0.993593981956E+03   -0.10013E-01   -0.86801E-02 12713   0.404E-01    0.431E-01
RMM:   3    -0.993594685648E+03   -0.70369E-03   -0.51672E-03 13194   0.120E-01    0.235E-01
RMM:   4    -0.993594476477E+03    0.20917E-03   -0.78818E-04 12488   0.351E-02    0.145E-01
RMM:   5    -0.993594400317E+03    0.76161E-04   -0.40765E-04  9513   0.238E-02    0.658E-02
RMM:   6    -0.993594416410E+03   -0.16093E-04   -0.99101E-05  7488   0.153E-02    0.585E-02
RMM:   7    -0.993594427862E+03   -0.11452E-04   -0.40733E-05  7268   0.104E-02    0.299E-02
RMM:   8    -0.993594439779E+03   -0.11917E-04   -0.26288E-05  7213   0.827E-03
  25 F= -.99359444E+03 E0= -.99358307E+03  d E =-.451573E-02  mag=   116.0000
       N       E                     dE             d eps       ncg     rms          rms(c)
DAV:   1    -0.993585818784E+03    0.86091E-02   -0.32903E+00 12544   0.212E+00    0.714E-01
RMM:   2    -0.993596566427E+03   -0.10748E-01   -0.84635E-02 12633   0.402E-01    0.432E-01
RMM:   3    -0.993597428189E+03   -0.86176E-03   -0.52041E-03 13200   0.117E-01    0.250E-01
RMM:   4    -0.993597218733E+03    0.20946E-03   -0.61094E-04 11656   0.319E-02    0.161E-01
RMM:   5    -0.993597103173E+03    0.11556E-03   -0.52160E-04 10086   0.244E-02    0.547E-02
RMM:   6    -0.993597110307E+03   -0.71332E-05   -0.66427E-05  7413   0.145E-02    0.336E-02
RMM:   7    -0.993597115135E+03   -0.48287E-05   -0.28975E-05  7279   0.760E-03    0.217E-02
RMM:   8    -0.993597118813E+03   -0.36773E-05   -0.16864E-05  7150   0.706E-03
  26 F= -.99359712E+03 E0= -.99358574E+03  d E =-.267903E-02  mag=   116.0000
       N       E                     dE             d eps       ncg     rms          rms(c)
DAV:   1    -0.993594764971E+03    0.23502E-02   -0.79055E-01 12704   0.104E+00    0.349E-01
RMM:   2    -0.993597363887E+03   -0.25989E-02   -0.20480E-02 12640   0.197E-01    0.212E-01
RMM:   3    -0.993597568702E+03   -0.20481E-03   -0.12450E-03 12017   0.579E-02    0.123E-01
RMM:   4    -0.993597518826E+03    0.49875E-04   -0.12410E-04  7609   0.165E-02    0.790E-02
RMM:   5    -0.993597494752E+03    0.24074E-04   -0.10366E-04  7362   0.133E-02    0.437E-02
RMM:   6    -0.993597500525E+03   -0.57725E-05   -0.33677E-05  7233   0.926E-03    0.223E-02
RMM:   7    -0.993597503239E+03   -0.27140E-05   -0.13855E-05  7087   0.618E-03    0.164E-02
RMM:   8    -0.993597505879E+03   -0.26403E-05   -0.83128E-06  6338   0.461E-03
  27 F= -.99359751E+03 E0= -.99358613E+03  d E =-.306610E-02  mag=   116.0000
       N       E                     dE             d eps       ncg     rms          rms(c)
DAV:   1    -0.993593436631E+03    0.40666E-02   -0.16262E+00 12496   0.150E+00    0.510E-01
RMM:   2    -0.993598825452E+03   -0.53888E-02   -0.43289E-02 12580   0.291E-01    0.324E-01
RMM:   3    -0.993599242226E+03   -0.41677E-03   -0.26531E-03 12932   0.840E-02    0.173E-01
RMM:   4    -0.993599121658E+03    0.12057E-03   -0.29929E-04  9089   0.234E-02    0.106E-01
RMM:   5    -0.993599080779E+03    0.40879E-04   -0.26772E-04  8397   0.194E-02    0.373E-02
RMM:   6    -0.993599087936E+03   -0.71565E-05   -0.37795E-05  7256   0.116E-02    0.296E-02
RMM:   7    -0.993599091463E+03   -0.35273E-05   -0.17670E-05  7118   0.594E-03    0.152E-02
RMM:   8    -0.993599094901E+03   -0.34381E-05   -0.96695E-06  6856   0.558E-03
  28 F= -.99359909E+03 E0= -.99358771E+03  d E =-.158902E-02  mag=   116.0000
