<?xml version="1.0" encoding="ISO-8859-1"?>
<modeling>
 <generator>
  <i name="program" type="string">vasp </i>
  <i name="version" type="string">5.4.1  </i>
  <i name="subversion" type="string">05Feb16 (build Jan 25 2017 20:16:33) complex                          parallel </i>
  <i name="platform" type="string">BWXE6 </i>
  <i name="date" type="string">2019 08 06 </i>
  <i name="time" type="string">15:40:59 </i>
 </generator>
 <incar>
  <i type="string" name="SYSTEM"> STF</i>
  <i type="string" name="PREC">normal</i>
  <i type="string" name="ALGO"> Fast</i>
  <i type="int" name="ISPIN">     2</i>
  <i type="int" name="NELM">    40</i>
  <i type="int" name="NELMIN">     8</i>
  <i type="int" name="IBRION">     2</i>
  <i name="EDIFF">      0.00010000</i>
  <i name="EDIFFG">     -0.03000000</i>
  <i type="int" name="NSW">    30</i>
  <i type="int" name="ISIF">     3</i>
  <i name="ENCUT">    520.00000000</i>
  <i type="int" name="NBANDS">   768</i>
  <v name="MAGMOM">      0.60000000      0.60000000      0.60000000      0.60000000      0.60000000      0.60000000      0.60000000      0.60000000      0.60000000      0.60000000      0.60000000      0.60000000      0.60000000      0.60000000      0.60000000      0.60000000      0.60000000      0.60000000      0.60000000      0.60000000
      0.60000000      0.60000000      0.60000000      0.60000000      0.60000000      0.60000000      0.60000000      0.60000000      0.60000000      0.60000000      0.60000000      0.60000000      0.60000000      0.60000000      0.60000000      0.60000000      0.60000000      0.60000000      0.60000000      0.60000000
      5.00000000      5.00000000      5.00000000      5.00000000      5.00000000      5.00000000      5.00000000      5.00000000      5.00000000      5.00000000      5.00000000      5.00000000      5.00000000      5.00000000      5.00000000      5.00000000      5.00000000      5.00000000      5.00000000      5.00000000
      5.00000000      5.00000000      5.00000000      5.00000000      0.60000000      0.60000000      0.60000000      0.60000000      0.60000000      0.60000000      0.60000000      0.60000000      0.60000000      0.60000000      0.60000000      0.60000000      0.60000000      0.60000000      0.60000000      0.60000000
      0.60000000      0.60000000      0.60000000      0.60000000      0.60000000      0.60000000      0.60000000      0.60000000      0.60000000      0.60000000      0.60000000      0.60000000      0.60000000      0.60000000      0.60000000      0.60000000      0.60000000      0.60000000      0.60000000      0.60000000
      0.60000000      0.60000000      0.60000000      0.60000000      0.60000000      0.60000000      0.60000000      0.60000000      0.60000000      0.60000000      0.60000000      0.60000000      0.60000000      0.60000000      0.60000000      0.60000000      0.60000000      0.60000000      0.60000000      0.60000000
      0.60000000      0.60000000      0.60000000      0.60000000      0.60000000      0.60000000      0.60000000      0.60000000      0.60000000      0.60000000      0.60000000      0.60000000      0.60000000      0.60000000      0.60000000      0.60000000      0.60000000      0.60000000      0.60000000      0.60000000
      0.60000000      0.60000000      0.60000000      0.60000000      0.60000000      0.60000000      0.60000000      0.60000000</v>
  <i type="string" name="LREAL"> Auto</i>
  <i type="int" name="ISMEAR">     0</i>
  <i name="SIGMA">      0.05000000</i>
  <i type="int" name="LMAXMIX">     4</i>
  <v type="int" name="KPOINT_BSE">    -1     0     0     0</v>
  <i type="int" name="NELM">    40</i>
  <i type="logical" name="LDAU"> T  </i>
  <v type="int" name="LDAUTYPE">     2</v>
  <v type="int" name="LDAUL">     0     2     2     0</v>
  <v name="LDAUU">      0.00000000      3.00000000      5.00000000      0.00000000</v>
  <v name="LDAUJ">      0.00000000      0.00000000      0.00000000      0.00000000</v>
  <i type="int" name="LDAUPRINT">     1</i>
 </incar>
 <kpoints>
  <generation param="Monkhorst-Pack">
   <v type="int" name="divisions">       2        2        2 </v>
   <v name="usershift">      0.00000000       0.00000000       0.00000000 </v>
   <v name="genvec1">      0.50000000      -0.00000000       0.00000000 </v>
   <v name="genvec2">      0.00000000       0.50000000      -0.00000000 </v>
   <v name="genvec3">     -0.00000000      -0.00000000       0.50000000 </v>
   <v name="shift">      0.50000000       0.50000000       0.50000000 </v>
  </generation>
  <varray name="kpointlist" >
   <v>       0.25000000       0.25000000       0.25000000 </v>
   <v>      -0.25000000       0.25000000       0.25000000 </v>
   <v>       0.25000000      -0.25000000       0.25000000 </v>
   <v>      -0.25000000      -0.25000000       0.25000000 </v>
  </varray>
  <varray name="weights" >
   <v>       0.25000000 </v>
   <v>       0.25000000 </v>
   <v>       0.25000000 </v>
   <v>       0.25000000 </v>
  </varray>
 </kpoints>
 <parameters>
  <separator name="general" >
   <i type="string" name="SYSTEM">STF</i>
   <i type="logical" name="LCOMPAT"> F  </i>
  </separator>
  <separator name="electronic" >
   <i type="string" name="PREC">normal</i>
   <i name="ENMAX">    520.00000000</i>
   <i name="ENAUG">    605.39200000</i>
   <i name="EDIFF">      0.00010000</i>
   <i type="int" name="IALGO">    68</i>
   <i type="int" name="IWAVPR">    11</i>
   <i type="int" name="NBANDS">   768</i>
   <i name="NELECT">   1048.00000000</i>
   <i type="int" name="TURBO">     0</i>
   <i type="int" name="IRESTART">     0</i>
   <i type="int" name="NREBOOT">     0</i>
   <i type="int" name="NMIN">     0</i>
   <i name="EREF">      0.00000000</i>
   <separator name="electronic smearing" >
    <i type="int" name="ISMEAR">     0</i>
    <i name="SIGMA">      0.05000000</i>
    <i name="KSPACING">      0.50000000</i>
    <i type="logical" name="KGAMMA"> T  </i>
   </separator>
   <separator name="electronic projectors" >
    <i type="logical" name="LREAL"> T  </i>
    <v name="ROPT">     -0.00050000     -0.00050000     -0.00050000     -0.00050000</v>
    <i type="int" name="LMAXPAW">  -100</i>
    <i type="int" name="LMAXMIX">     4</i>
    <i type="logical" name="NLSPLINE"> F  </i>
   </separator>
   <separator name="electronic startup" >
    <i type="int" name="ISTART">     1</i>
    <i type="int" name="ICHARG">     0</i>
    <i type="int" name="INIWAV">     1</i>
   </separator>
   <separator name="electronic spin" >
    <i type="int" name="ISPIN">     2</i>
    <i type="logical" name="LNONCOLLINEAR"> F  </i>
    <v name="MAGMOM">      0.60000000      0.60000000      0.60000000      0.60000000      0.60000000      0.60000000      0.60000000      0.60000000      0.60000000      0.60000000      0.60000000      0.60000000      0.60000000      0.60000000      0.60000000      0.60000000      0.60000000      0.60000000      0.60000000      0.60000000
      0.60000000      0.60000000      0.60000000      0.60000000      0.60000000      0.60000000      0.60000000      0.60000000      0.60000000      0.60000000      0.60000000      0.60000000      0.60000000      0.60000000      0.60000000      0.60000000      0.60000000      0.60000000      0.60000000      0.60000000
      5.00000000      5.00000000      5.00000000      5.00000000      5.00000000      5.00000000      5.00000000      5.00000000      5.00000000      5.00000000      5.00000000      5.00000000      5.00000000      5.00000000      5.00000000      5.00000000      5.00000000      5.00000000      5.00000000      5.00000000
      5.00000000      5.00000000      5.00000000      5.00000000      0.60000000      0.60000000      0.60000000      0.60000000      0.60000000      0.60000000      0.60000000      0.60000000      0.60000000      0.60000000      0.60000000      0.60000000      0.60000000      0.60000000      0.60000000      0.60000000
      0.60000000      0.60000000      0.60000000      0.60000000      0.60000000      0.60000000      0.60000000      0.60000000      0.60000000      0.60000000      0.60000000      0.60000000      0.60000000      0.60000000      0.60000000      0.60000000      0.60000000      0.60000000      0.60000000      0.60000000
      0.60000000      0.60000000      0.60000000      0.60000000      0.60000000      0.60000000      0.60000000      0.60000000      0.60000000      0.60000000      0.60000000      0.60000000      0.60000000      0.60000000      0.60000000      0.60000000      0.60000000      0.60000000      0.60000000      0.60000000
      0.60000000      0.60000000      0.60000000      0.60000000      0.60000000      0.60000000      0.60000000      0.60000000      0.60000000      0.60000000      0.60000000      0.60000000      0.60000000      0.60000000      0.60000000      0.60000000      0.60000000      0.60000000      0.60000000      0.60000000
      0.60000000      0.60000000      0.60000000      0.60000000      0.60000000      0.60000000      0.60000000      0.60000000</v>
    <i name="NUPDOWN">     -1.00000000</i>
    <i type="logical" name="LSORBIT"> F  </i>
    <v name="SAXIS">      0.00000000      0.00000000      1.00000000</v>
    <i type="logical" name="LSPIRAL"> F  </i>
    <v name="QSPIRAL">      0.00000000      0.00000000      0.00000000</v>
    <i type="logical" name="LZEROZ"> F  </i>
   </separator>
   <separator name="electronic exchange-correlation" >
    <i type="logical" name="LASPH"> F  </i>
    <i type="logical" name="LMETAGGA"> F  </i>
   </separator>
   <separator name="electronic convergence" >
    <i type="int" name="NELM">    40</i>
    <i type="int" name="NELMDL">     0</i>
    <i type="int" name="NELMIN">     8</i>
    <i name="ENINI">    520.00000000</i>
    <separator name="electronic convergence detail" >
     <i type="logical" name="LDIAG"> T  </i>
     <i type="logical" name="LSUBROT"> F  </i>
     <i name="WEIMIN">      0.00100000</i>
     <i name="EBREAK">      0.00000003</i>
     <i name="DEPER">      0.30000000</i>
     <i type="int" name="NRMM">     4</i>
     <i name="TIME">      0.40000000</i>
    </separator>
   </separator>
   <separator name="electronic mixer" >
    <i name="AMIX">      0.40000000</i>
    <i name="BMIX">      1.00000000</i>
    <i name="AMIN">      0.10000000</i>
    <i name="AMIX_MAG">      1.60000000</i>
    <i name="BMIX_MAG">      1.00000000</i>
    <separator name="electronic mixer details" >
     <i type="int" name="IMIX">     4</i>
     <i type="logical" name="MIXFIRST"> F  </i>
     <i type="int" name="MAXMIX">   -45</i>
     <i name="WC">    100.00000000</i>
     <i type="int" name="INIMIX">     1</i>
     <i type="int" name="MIXPRE">     1</i>
     <i type="int" name="MREMOVE">     5</i>
    </separator>
   </separator>
   <separator name="electronic dipolcorrection" >
    <i type="logical" name="LDIPOL"> F  </i>
    <i type="logical" name="LMONO"> F  </i>
    <i type="int" name="IDIPOL">     0</i>
    <i name="EPSILON">      1.00000000</i>
    <v name="DIPOL">   -100.00000000   -100.00000000   -100.00000000</v>
    <i name="EFIELD">      0.00000000</i>
   </separator>
  </separator>
  <separator name="grids" >
   <i type="int" name="NGX">    64</i>
   <i type="int" name="NGY">    64</i>
   <i type="int" name="NGZ">    90</i>
   <i type="int" name="NGXF">   128</i>
   <i type="int" name="NGYF">   128</i>
   <i type="int" name="NGZF">   180</i>
   <i type="logical" name="ADDGRID"> F  </i>
  </separator>
  <separator name="ionic" >
   <i type="int" name="NSW">    30</i>
   <i type="int" name="IBRION">     2</i>
   <i type="int" name="ISIF">     3</i>
   <i name="PSTRESS">      0.00000000</i>
   <i name="EDIFFG">     -0.03000000</i>
   <i type="int" name="NFREE">     1</i>
   <i name="POTIM">      0.50000000</i>
   <i name="SMASS">     -3.00000000</i>
   <i name="SCALEE">      1.00000000</i>
  </separator>
  <separator name="ionic md" >
   <i name="TEBEG">      0.00010000</i>
   <i name="TEEND">      0.00010000</i>
   <i type="int" name="NBLOCK">     1</i>
   <i type="int" name="KBLOCK">    30</i>
   <i type="int" name="NPACO">   256</i>
   <i name="APACO">     16.00000000</i>
  </separator>
  <separator name="symmetry" >
   <i type="int" name="ISYM">     2</i>
   <i name="SYMPREC">      0.00001000</i>
  </separator>
  <separator name="dos" >
   <i type="logical" name="LORBIT"> F  </i>
   <v name="RWIGS">     -1.00000000     -1.00000000     -1.00000000     -1.00000000</v>
   <i type="int" name="NEDOS">   301</i>
   <i name="EMIN">     10.00000000</i>
   <i name="EMAX">    -10.00000000</i>
   <i name="EFERMI">      0.00000000</i>
  </separator>
  <separator name="writing" >
   <i type="int" name="NWRITE">     2</i>
   <i type="logical" name="LWAVE"> T  </i>
   <i type="logical" name="LCHARG"> T  </i>
   <i type="logical" name="LPARD"> F  </i>
   <i type="logical" name="LVTOT"> F  </i>
   <i type="logical" name="LVHAR"> F  </i>
   <i type="logical" name="LELF"> F  </i>
   <i type="logical" name="LOPTICS"> F  </i>
   <v name="STM">      0.00000000      0.00000000      0.00000000      0.00000000      0.00000000      0.00000000      0.00000000</v>
  </separator>
  <separator name="performance" >
   <i type="int" name="NPAR">     2</i>
   <i type="int" name="NSIM">     4</i>
   <i type="int" name="NBLK">    -1</i>
   <i type="logical" name="LPLANE"> T  </i>
   <i type="logical" name="LSCALAPACK"> T  </i>
   <i type="logical" name="LSCAAWARE"> F  </i>
   <i type="logical" name="LSCALU"> F  </i>
   <i type="logical" name="LASYNC"> F  </i>
   <i type="logical" name="LORBITALREAL"> F  </i>
  </separator>
  <separator name="miscellaneous" >
   <i type="int" name="IDIOT">     3</i>
   <i type="logical" name="LMUSIC"> F  </i>
   <v name="POMASS">     87.62000000     47.88000000     55.84700000     16.00000000</v>
   <v name="DARWINR">      0.00000000      0.00000000      0.00000000      0.00000000</v>
   <v name="DARWINV">      1.00000000      1.00000000      1.00000000      1.00000000</v>
   <i type="logical" name="LCORR"> T  </i>
  </separator>
  <i type="logical" name="GGA_COMPAT"> T  </i>
  <i type="logical" name="LBERRY"> F  </i>
  <i type="int" name="ICORELEVEL">     0</i>
  <i type="logical" name="LDAU"> T  </i>
  <v type="int" name="LDAUTYPE">     2</v>
  <v type="int" name="LDAUL">     0</v>
  <v name="LDAUU">      0.00000000</v>
  <v name="LDAUJ">      0.00000000</v>
  <i type="int" name="LDAUPRINT">     1</i>
  <i type="int" name="I_CONSTRAINED_M">     0</i>
  <separator name="electronic exchange-correlation" >
   <i type="string" name="GGA">--</i>
   <i type="int" name="VOSKOWN">     0</i>
   <i type="logical" name="LHFCALC"> F  </i>
   <i type="string" name="PRECFOCK"></i>
   <i type="logical" name="LSYMGRAD"> F  </i>
   <i type="logical" name="LHFONE"> F  </i>
   <i type="logical" name="LRHFCALC"> F  </i>
   <i type="logical" name="LTHOMAS"> F  </i>
   <i type="logical" name="LMODELHF"> F  </i>
   <i name="ENCUT4O">     -1.00000000</i>
   <i type="int" name="EXXOEP">     0</i>
   <i type="int" name="FOURORBIT">     0</i>
   <i name="AEXX">      0.00000000</i>
   <i name="HFALPHA">      0.00000000</i>
   <i name="MCALPHA">      0.00000000</i>
   <i name="ALDAX">      1.00000000</i>
   <i name="AGGAX">      1.00000000</i>
   <i name="ALDAC">      1.00000000</i>
   <i name="AGGAC">      1.00000000</i>
   <i type="int" name="NKREDX">     1</i>
   <i type="int" name="NKREDY">     1</i>
   <i type="int" name="NKREDZ">     1</i>
   <i type="logical" name="SHIFTRED"> F  </i>
   <i type="logical" name="ODDONLY"> F  </i>
   <i type="logical" name="EVENONLY"> F  </i>
   <i type="int" name="LMAXFOCK">     0</i>
   <i type="int" name="NMAXFOCKAE">     0</i>
   <i type="logical" name="LFOCKAEDFT"> F  </i>
   <i name="HFSCREEN">      0.00000000</i>
   <i name="HFSCREENC">      0.00000000</i>
   <i type="int" name="NBANDSGWLOW">     0</i>
  </separator>
  <separator name="vdW DFT" >
   <i type="logical" name="LUSE_VDW"> F  </i>
   <i name="Zab_VDW">     -0.84910000</i>
   <i name="PARAM1">      0.12340000</i>
   <i name="PARAM2">      1.00000000</i>
   <i name="PARAM3">      0.00000000</i>
  </separator>
  <separator name="model GW" >
   <i type="int" name="MODEL_GW">     0</i>
   <i name="MODEL_EPS0">      8.16801686</i>
   <i name="MODEL_ALPHA">      1.00000000</i>
  </separator>
  <separator name="linear response parameters" >
   <i type="logical" name="LEPSILON"> F  </i>
   <i type="logical" name="LRPA"> F  </i>
   <i type="logical" name="LNABLA"> F  </i>
   <i type="logical" name="LVEL"> F  </i>
   <i type="int" name="KINTER">     0</i>
   <i name="CSHIFT">      0.10000000</i>
   <i name="OMEGAMAX">     -1.00000000</i>
   <i name="DEG_THRESHOLD">      0.00200000</i>
  </separator>
  <separator name="orbital magnetization" >
   <i type="logical" name="NUCIND"> F  </i>
   <v name="MAGPOS">      0.00000000      0.00000000      0.00000000</v>
   <i type="logical" name="LNICSALL"> T  </i>
   <i type="logical" name="ORBITALMAG"> F  </i>
   <i type="logical" name="LMAGBLOCH"> F  </i>
   <i type="logical" name="LCHIMAG"> F  </i>
   <i type="logical" name="LGAUGE"> T  </i>
   <i type="int" name="MAGATOM">     0</i>
   <v name="MAGDIPOL">      0.00000000      0.00000000      0.00000000</v>
   <v name="AVECCONST">      0.00000000      0.00000000      0.00000000</v>
  </separator>
  <separator name="response functions" >
   <i type="logical" name="LADDER"> F  </i>
   <i type="logical" name="LFXC"> F  </i>
   <i type="logical" name="LHARTREE"> T  </i>
   <i type="int" name="IBSE">     0</i>
   <v type="int" name="KPOINT">    -1     0     0     0</v>
   <i type="logical" name="LTCTE"> F  </i>
   <i type="logical" name="LTETE"> F  </i>
   <i type="logical" name="LTRIPLET"> F  </i>
   <i type="logical" name="LFXCEPS"> F  </i>
   <i type="logical" name="LFXHEG"> F  </i>
   <i type="int" name="NATURALO">     0</i>
   <i type="logical" name="L2ORDER"> F  </i>
   <i type="logical" name="LUSEW"> F  </i>
   <i name="ENCUTGW">     -2.00000000</i>
   <i name="ENCUTGWSOFT">     -2.00000000</i>
   <i name="ENCUTLF">     -1.00000000</i>
   <i type="int" name="LMAXMP2">    -1</i>
   <i name="SCISSOR">      0.00000000</i>
   <i type="int" name="NOMEGA">     0</i>
   <i type="int" name="NOMEGAR">     0</i>
   <i type="int" name="NBANDSGW">    -1</i>
   <i type="int" name="NBANDSO">    -1</i>
   <i type="int" name="NBANDSV">    -1</i>
   <i type="int" name="NELM">    40</i>
   <i type="int" name="NELMHF">     1</i>
   <i type="int" name="DIM">     3</i>
   <i type="int" name="ANTIRES">     0</i>
   <i name="OMEGAMAX">    -30.00000000</i>
   <i name="OMEGAMIN">    -30.00000000</i>
   <i name="OMEGATL">   -200.00000000</i>
   <i type="int" name="OMEGAGRID">     0</i>
   <i name="CSHIFT">     -0.10000000</i>
   <i type="logical" name="SELFENERGY"> F  </i>
   <i type="logical" name="LSPECTRAL"> F  </i>
   <i type="logical" name="LSPECTRALGW"> F  </i>
   <i type="logical" name="LSINGLES"> F  </i>
   <i type="logical" name="LFERMIGW"> F  </i>
   <i type="logical" name="ODDONLYGW"> F  </i>
   <i type="logical" name="EVENONLYGW"> F  </i>
   <i type="int" name="NKREDLFX">     1</i>
   <i type="int" name="NKREDLFY">     1</i>
   <i type="int" name="NKREDLFZ">     1</i>
   <i type="int" name="MAXMEM">  1800</i>
   <i type="int" name="TELESCOPE">     0</i>
   <i type="int" name="TAUPAR">     1</i>
   <i type="int" name="OMEGAPAR">    -1</i>
   <i name="LAMBDA">      1.00000000</i>
  </separator>
  <separator name="External order field" >
   <i name="OFIELD_KAPPA">      0.00000000</i>
   <v name="OFIELD_K">      0.00000000      0.00000000      0.00000000</v>
   <i name="OFIELD_Q6_NEAR">      0.00000000</i>
   <i name="OFIELD_Q6_FAR">      0.00000000</i>
   <i name="OFIELD_A">      0.00000000</i>
  </separator>
 </parameters>
 <atominfo>
  <atoms>     148 </atoms>
  <types>       4 </types>
  <array name="atoms" >
   <dimension dim="1">ion</dimension>
   <field type="string">element</field>
   <field type="int">atomtype</field>
   <set>
    <rc><c>Sr</c><c>   1</c></rc>
    <rc><c>Sr</c><c>   1</c></rc>
    <rc><c>Sr</c><c>   1</c></rc>
    <rc><c>Sr</c><c>   1</c></rc>
    <rc><c>Sr</c><c>   1</c></rc>
    <rc><c>Sr</c><c>   1</c></rc>
    <rc><c>Sr</c><c>   1</c></rc>
    <rc><c>Sr</c><c>   1</c></rc>
    <rc><c>Sr</c><c>   1</c></rc>
    <rc><c>Sr</c><c>   1</c></rc>
    <rc><c>Sr</c><c>   1</c></rc>
    <rc><c>Sr</c><c>   1</c></rc>
    <rc><c>Sr</c><c>   1</c></rc>
    <rc><c>Sr</c><c>   1</c></rc>
    <rc><c>Sr</c><c>   1</c></rc>
    <rc><c>Sr</c><c>   1</c></rc>
    <rc><c>Sr</c><c>   1</c></rc>
    <rc><c>Sr</c><c>   1</c></rc>
    <rc><c>Sr</c><c>   1</c></rc>
    <rc><c>Sr</c><c>   1</c></rc>
    <rc><c>Sr</c><c>   1</c></rc>
    <rc><c>Sr</c><c>   1</c></rc>
    <rc><c>Sr</c><c>   1</c></rc>
    <rc><c>Sr</c><c>   1</c></rc>
    <rc><c>Sr</c><c>   1</c></rc>
    <rc><c>Sr</c><c>   1</c></rc>
    <rc><c>Sr</c><c>   1</c></rc>
    <rc><c>Sr</c><c>   1</c></rc>
    <rc><c>Sr</c><c>   1</c></rc>
    <rc><c>Sr</c><c>   1</c></rc>
    <rc><c>Sr</c><c>   1</c></rc>
    <rc><c>Sr</c><c>   1</c></rc>
    <rc><c>Ti</c><c>   2</c></rc>
    <rc><c>Ti</c><c>   2</c></rc>
    <rc><c>Ti</c><c>   2</c></rc>
    <rc><c>Ti</c><c>   2</c></rc>
    <rc><c>Ti</c><c>   2</c></rc>
    <rc><c>Ti</c><c>   2</c></rc>
    <rc><c>Ti</c><c>   2</c></rc>
    <rc><c>Ti</c><c>   2</c></rc>
    <rc><c>Fe</c><c>   3</c></rc>
    <rc><c>Fe</c><c>   3</c></rc>
    <rc><c>Fe</c><c>   3</c></rc>
    <rc><c>Fe</c><c>   3</c></rc>
    <rc><c>Fe</c><c>   3</c></rc>
    <rc><c>Fe</c><c>   3</c></rc>
    <rc><c>Fe</c><c>   3</c></rc>
    <rc><c>Fe</c><c>   3</c></rc>
    <rc><c>Fe</c><c>   3</c></rc>
    <rc><c>Fe</c><c>   3</c></rc>
    <rc><c>Fe</c><c>   3</c></rc>
    <rc><c>Fe</c><c>   3</c></rc>
    <rc><c>Fe</c><c>   3</c></rc>
    <rc><c>Fe</c><c>   3</c></rc>
    <rc><c>Fe</c><c>   3</c></rc>
    <rc><c>Fe</c><c>   3</c></rc>
    <rc><c>Fe</c><c>   3</c></rc>
    <rc><c>Fe</c><c>   3</c></rc>
    <rc><c>Fe</c><c>   3</c></rc>
    <rc><c>Fe</c><c>   3</c></rc>
    <rc><c>Fe</c><c>   3</c></rc>
    <rc><c>Fe</c><c>   3</c></rc>
    <rc><c>Fe</c><c>   3</c></rc>
    <rc><c>Fe</c><c>   3</c></rc>
    <rc><c>O </c><c>   4</c></rc>
    <rc><c>O </c><c>   4</c></rc>
    <rc><c>O </c><c>   4</c></rc>
    <rc><c>O </c><c>   4</c></rc>
    <rc><c>O </c><c>   4</c></rc>
    <rc><c>O </c><c>   4</c></rc>
    <rc><c>O </c><c>   4</c></rc>
    <rc><c>O </c><c>   4</c></rc>
    <rc><c>O </c><c>   4</c></rc>
    <rc><c>O </c><c>   4</c></rc>
    <rc><c>O </c><c>   4</c></rc>
    <rc><c>O </c><c>   4</c></rc>
    <rc><c>O </c><c>   4</c></rc>
    <rc><c>O </c><c>   4</c></rc>
    <rc><c>O </c><c>   4</c></rc>
    <rc><c>O </c><c>   4</c></rc>
    <rc><c>O </c><c>   4</c></rc>
    <rc><c>O </c><c>   4</c></rc>
    <rc><c>O </c><c>   4</c></rc>
    <rc><c>O </c><c>   4</c></rc>
    <rc><c>O </c><c>   4</c></rc>
    <rc><c>O </c><c>   4</c></rc>
    <rc><c>O </c><c>   4</c></rc>
    <rc><c>O </c><c>   4</c></rc>
    <rc><c>O </c><c>   4</c></rc>
    <rc><c>O </c><c>   4</c></rc>
    <rc><c>O </c><c>   4</c></rc>
    <rc><c>O </c><c>   4</c></rc>
    <rc><c>O </c><c>   4</c></rc>
    <rc><c>O </c><c>   4</c></rc>
    <rc><c>O </c><c>   4</c></rc>
    <rc><c>O </c><c>   4</c></rc>
    <rc><c>O </c><c>   4</c></rc>
    <rc><c>O </c><c>   4</c></rc>
    <rc><c>O </c><c>   4</c></rc>
    <rc><c>O </c><c>   4</c></rc>
    <rc><c>O </c><c>   4</c></rc>
    <rc><c>O </c><c>   4</c></rc>
    <rc><c>O </c><c>   4</c></rc>
    <rc><c>O </c><c>   4</c></rc>
    <rc><c>O </c><c>   4</c></rc>
    <rc><c>O </c><c>   4</c></rc>
    <rc><c>O </c><c>   4</c></rc>
    <rc><c>O </c><c>   4</c></rc>
    <rc><c>O </c><c>   4</c></rc>
    <rc><c>O </c><c>   4</c></rc>
    <rc><c>O </c><c>   4</c></rc>
    <rc><c>O </c><c>   4</c></rc>
    <rc><c>O </c><c>   4</c></rc>
    <rc><c>O </c><c>   4</c></rc>
    <rc><c>O </c><c>   4</c></rc>
    <rc><c>O </c><c>   4</c></rc>
    <rc><c>O </c><c>   4</c></rc>
    <rc><c>O </c><c>   4</c></rc>
    <rc><c>O </c><c>   4</c></rc>
    <rc><c>O </c><c>   4</c></rc>
    <rc><c>O </c><c>   4</c></rc>
    <rc><c>O </c><c>   4</c></rc>
    <rc><c>O </c><c>   4</c></rc>
    <rc><c>O </c><c>   4</c></rc>
    <rc><c>O </c><c>   4</c></rc>
    <rc><c>O </c><c>   4</c></rc>
    <rc><c>O </c><c>   4</c></rc>
    <rc><c>O </c><c>   4</c></rc>
    <rc><c>O </c><c>   4</c></rc>
    <rc><c>O </c><c>   4</c></rc>
    <rc><c>O </c><c>   4</c></rc>
    <rc><c>O </c><c>   4</c></rc>
    <rc><c>O </c><c>   4</c></rc>
    <rc><c>O </c><c>   4</c></rc>
    <rc><c>O </c><c>   4</c></rc>
    <rc><c>O </c><c>   4</c></rc>
    <rc><c>O </c><c>   4</c></rc>
    <rc><c>O </c><c>   4</c></rc>
    <rc><c>O </c><c>   4</c></rc>
    <rc><c>O </c><c>   4</c></rc>
    <rc><c>O </c><c>   4</c></rc>
    <rc><c>O </c><c>   4</c></rc>
    <rc><c>O </c><c>   4</c></rc>
    <rc><c>O </c><c>   4</c></rc>
    <rc><c>O </c><c>   4</c></rc>
    <rc><c>O </c><c>   4</c></rc>
    <rc><c>O </c><c>   4</c></rc>
    <rc><c>O </c><c>   4</c></rc>
   </set>
  </array>
  <array name="atomtypes" >
   <dimension dim="1">type</dimension>
   <field type="int">atomspertype</field>
   <field type="string">element</field>
   <field>mass</field>
   <field>valence</field>
   <field type="string">pseudopotential</field>
   <set>
    <rc><c>  32</c><c>Sr</c><c>     87.62000000</c><c>     10.00000000</c><c>  PAW_PBE Sr_sv 07Sep2000               </c></rc>
    <rc><c>   8</c><c>Ti</c><c>     47.88000000</c><c>      4.00000000</c><c>  PAW_PBE Ti 08Apr2002                  </c></rc>
    <rc><c>  24</c><c>Fe</c><c>     55.84700000</c><c>      8.00000000</c><c>  PAW_PBE Fe 06Sep2000                  </c></rc>
    <rc><c>  84</c><c>O </c><c>     16.00000000</c><c>      6.00000000</c><c>  PAW_PBE O 08Apr2002                   </c></rc>
   </set>
  </array>
 </atominfo>
 <structure name="initialpos" >
  <crystal>
   <varray name="basis" >
    <v>      11.16654507       0.01566467       0.00182091 </v>
    <v>       0.01634631      11.30312493       0.00875840 </v>
    <v>       0.00253009       0.01189125      15.96286654 </v>
   </varray>
   <i name="volume">   2014.77749256 </i>
   <varray name="rec_basis" >
    <v>       0.08955340      -0.00012950      -0.00001410 </v>
    <v>      -0.00012410       0.08847134      -0.00006589 </v>
    <v>      -0.00001015      -0.00004853       0.06264543 </v>
   </varray>
  </crystal>
  <varray name="positions" >
   <v>       0.98597110       0.24538178       0.11427176 </v>
   <v>       0.00459508       0.24083449       0.61071134 </v>
   <v>       0.98597110       0.74538178       0.11427176 </v>
   <v>       0.00459508       0.74083449       0.61071134 </v>
   <v>       0.50431180       0.25012693       0.12299876 </v>
   <v>       0.49548134       0.24207460       0.60855304 </v>
   <v>       0.50431180       0.75012693       0.12299876 </v>
   <v>       0.49548134       0.74207460       0.60855304 </v>
   <v>       0.98668914       0.24647961       0.38448915 </v>
   <v>       0.99440141       0.24048224       0.88980302 </v>
   <v>       0.98668914       0.74647961       0.38448915 </v>
   <v>       0.99440141       0.74048224       0.88980302 </v>
   <v>       0.50437330       0.25203640       0.37708547 </v>
   <v>       0.50108775       0.24101045       0.89113763 </v>
   <v>       0.50437330       0.75203640       0.37708547 </v>
   <v>       0.50108775       0.74101045       0.89113763 </v>
   <v>       0.24310106       0.99921074       0.11497081 </v>
   <v>       0.24899334       0.00656984       0.61047317 </v>
   <v>       0.24310106       0.49921074       0.11497081 </v>
   <v>       0.24899334       0.50656984       0.61047317 </v>
   <v>       0.75075641       0.00180498       0.12079270 </v>
   <v>       0.74798472       0.00921677       0.60890635 </v>
   <v>       0.75075641       0.50180498       0.12079270 </v>
   <v>       0.74798472       0.50921677       0.60890635 </v>
   <v>       0.24534676       0.99895113       0.38393306 </v>
   <v>       0.25054724       0.00613696       0.88966622 </v>
   <v>       0.24534676       0.49895113       0.38393306 </v>
   <v>       0.25054724       0.50613696       0.88966622 </v>
   <v>       0.74923868       0.00153623       0.37794650 </v>
   <v>       0.74803777       0.00894018       0.89125919 </v>
   <v>       0.74923868       0.50153623       0.37794650 </v>
   <v>       0.74803777       0.50894018       0.89125919 </v>
   <v>       0.24537027       0.24802393       0.00194862 </v>
   <v>       0.49641624       0.49997004       0.49701385 </v>
   <v>       0.99647981       0.99796263       0.49923826 </v>
   <v>       0.49641624       0.99997004       0.49701385 </v>
   <v>       0.24537027       0.74802393       0.00194862 </v>
   <v>       0.75143085       0.74559199       0.25063266 </v>
   <v>       0.75143085       0.24559199       0.25063266 </v>
   <v>       0.99647981       0.49796263       0.49923826 </v>
   <v>       0.99443679       0.99863192       0.00347277 </v>
   <v>       0.99443679       0.49863192       0.00347277 </v>
   <v>       0.49673023       0.50070230       0.00766171 </v>
   <v>       0.74461614       0.25102552       0.00178425 </v>
   <v>       0.74578464       0.25092780       0.50063784 </v>
   <v>       0.49673023       0.00070230       0.00766171 </v>
   <v>       0.76477606       0.28667192       0.74893096 </v>
   <v>       0.24579778       0.74687051       0.48802604 </v>
   <v>       0.24579778       0.24687051       0.48802604 </v>
   <v>       0.74578464       0.75092780       0.50063784 </v>
   <v>       0.24594167       0.28456977       0.24783968 </v>
   <v>       0.26771862       0.28528635       0.75470041 </v>
   <v>       0.24594167       0.78456977       0.24783968 </v>
   <v>       0.76477606       0.78667192       0.74893096 </v>
   <v>       0.51787067       0.48963023       0.24980813 </v>
   <v>       0.74461614       0.75102552       0.00178425 </v>
   <v>       0.98838389       0.98399937       0.24933613 </v>
   <v>       0.01647274       0.96196348       0.74829115 </v>
   <v>       0.98838389       0.48399937       0.24933613 </v>
   <v>       0.01647274       0.46196348       0.74829115 </v>
   <v>       0.51787067       0.98963023       0.24980813 </v>
   <v>       0.51658239       0.96358574       0.74748784 </v>
   <v>       0.26771862       0.78528635       0.75470041 </v>
   <v>       0.51658239       0.46358574       0.74748784 </v>
   <v>       0.99572093       0.00438765       0.12540485 </v>
   <v>       0.99178564       0.01345083       0.63623822 </v>
   <v>       0.99572093       0.50438765       0.12540485 </v>
   <v>       0.99178564       0.51345083       0.63623822 </v>
   <v>       0.48754667       0.01023839       0.12975175 </v>
   <v>       0.48877424       0.01366716       0.63482554 </v>
   <v>       0.48754667       0.51023839       0.12975175 </v>
   <v>       0.48877424       0.51366716       0.63482554 </v>
   <v>       0.99585957       0.99865064       0.37787948 </v>
   <v>       0.98378908       0.02175144       0.85406418 </v>
   <v>       0.99585957       0.49865064       0.37787948 </v>
   <v>       0.98378908       0.52175144       0.85406418 </v>
   <v>       0.49248660       0.00346943       0.37454795 </v>
   <v>       0.48151098       0.02388472       0.85271840 </v>
   <v>       0.49248660       0.50346943       0.37454795 </v>
   <v>       0.48151098       0.52388472       0.85271840 </v>
   <v>       0.23534560       0.23034458       0.36410245 </v>
   <v>       0.24090453       0.23707724       0.86728648 </v>
   <v>       0.23534560       0.73034458       0.36410245 </v>
   <v>       0.24090453       0.73707724       0.86728648 </v>
   <v>       0.74789711       0.25668266       0.37596655 </v>
   <v>       0.73463641       0.23023661       0.85711727 </v>
   <v>       0.74789711       0.75668266       0.37596655 </v>
   <v>       0.73463641       0.73023661       0.85711727 </v>
   <v>       0.23639568       0.23815474       0.12877561 </v>
   <v>       0.23370631       0.22100817       0.65163239 </v>
   <v>       0.23639568       0.73815474       0.12877561 </v>
   <v>       0.23370631       0.72100817       0.65163239 </v>
   <v>       0.74758846       0.25256918       0.12668433 </v>
   <v>       0.73369870       0.23084411       0.63994195 </v>
   <v>       0.74758846       0.75256918       0.12668433 </v>
   <v>       0.73369870       0.73084411       0.63994195 </v>
   <v>       0.15460727       0.44265652       0.25038815 </v>
   <v>       0.40403266       0.36331215       0.25070737 </v>
   <v>       0.65803633       0.39713033       0.24991662 </v>
   <v>       0.90753305       0.33784861       0.25024838 </v>
   <v>       0.15460727       0.94265652       0.25038815 </v>
   <v>       0.40403266       0.86331215       0.25070737 </v>
   <v>       0.65803633       0.89713033       0.24991662 </v>
   <v>       0.90753305       0.83784861       0.25024838 </v>
   <v>       0.12372911       0.12023727       0.50182602 </v>
   <v>       0.37201966       0.12622973       0.50035998 </v>
   <v>       0.62181820       0.12242000       0.49871297 </v>
   <v>       0.87398243       0.12615062       0.50088241 </v>
   <v>       0.12149658       0.37098008       0.50355964 </v>
   <v>       0.36834538       0.37374398       0.50094091 </v>
   <v>       0.61820461       0.37567984       0.50607282 </v>
   <v>       0.87201001       0.37536162       0.50816444 </v>
   <v>       0.12372911       0.62023727       0.50182602 </v>
   <v>       0.37201966       0.62622973       0.50035998 </v>
   <v>       0.62181820       0.62242000       0.49871297 </v>
   <v>       0.87398243       0.62615062       0.50088241 </v>
   <v>       0.12149658       0.87098008       0.50355964 </v>
   <v>       0.36834538       0.87374398       0.50094091 </v>
   <v>       0.61820461       0.87567984       0.50607282 </v>
   <v>       0.87201001       0.87536162       0.50816444 </v>
   <v>       0.18744675       0.43577784       0.75069880 </v>
   <v>       0.43858501       0.31239507       0.74974665 </v>
   <v>       0.68772487       0.43916923       0.74908090 </v>
   <v>       0.93671583       0.31159272       0.74871057 </v>
   <v>       0.18744675       0.93577784       0.75069880 </v>
   <v>       0.43858501       0.81239507       0.74974665 </v>
   <v>       0.68772487       0.93916923       0.74908090 </v>
   <v>       0.93671583       0.81159272       0.74871057 </v>
   <v>       0.12169145       0.12191555       0.99688623 </v>
   <v>       0.37144009       0.12594369       0.99963735 </v>
   <v>       0.62267793       0.12425236       0.00200437 </v>
   <v>       0.87088410       0.12747967       0.99980586 </v>
   <v>       0.12024064       0.37304878       0.99637344 </v>
   <v>       0.36896174       0.37357851       0.99908171 </v>
   <v>       0.61960899       0.37617697       0.99641904 </v>
   <v>       0.87026196       0.37338845       0.99357003 </v>
   <v>       0.12169145       0.62191555       0.99688623 </v>
   <v>       0.37144009       0.62594369       0.99963735 </v>
   <v>       0.62267793       0.62425236       0.00200437 </v>
   <v>       0.87088410       0.62747967       0.99980586 </v>
   <v>       0.12024064       0.87304878       0.99637344 </v>
   <v>       0.36896174       0.87357851       0.99908171 </v>
   <v>       0.61960899       0.87617697       0.99641904 </v>
   <v>       0.87026196       0.87338845       0.99357003 </v>
   <v>       0.60154015       0.14591977       0.25242021 </v>
   <v>       0.85903303       0.10498625       0.25303932 </v>
   <v>       0.60154015       0.64591977       0.25242021 </v>
   <v>       0.85903303       0.60498625       0.25303932 </v>
  </varray>
 </structure>
 <calculation>
  <scstep>
   <time name="dav">  308.17  308.24</time>
   <time name="total">  311.99  312.12</time>
   <energy>
    <i name="alphaZ">   5577.49782091 </i>
    <i name="ewald"> -62578.01923060 </i>
    <i name="hartreedc"> -19006.20020744 </i>
    <i name="XCdc">   3405.63592899 </i>
    <i name="pawpsdc"> 119058.81832416 </i>
    <i name="pawaedc">-118561.59933866 </i>
    <i name="eentropy">     -0.02236128 </i>
    <i name="bandstr">  -7206.42971264 </i>
    <i name="atom">  78316.90445604 </i>
    <i name="e_fr_energy">   -993.41432052 </i>
    <i name="e_wo_entrp">   -993.39195924 </i>
    <i name="e_0_energy">   -993.40313988 </i>
   </energy>
  </scstep>
  <scstep>
   <time name="diag">   33.35   33.38</time>
   <time name="diis">   33.87   33.90</time>
   <time name="orth">   18.96   18.97</time>
   <time name="total">   89.99   90.07</time>
   <energy>
    <i name="e_fr_energy">   -993.41435547 </i>
    <i name="e_wo_entrp">   -993.39200294 </i>
    <i name="e_0_energy">   -993.40317920 </i>
   </energy>
  </scstep>
  <scstep>
   <time name="diag">   33.33   33.34</time>
   <time name="diis">   32.16   32.18</time>
   <time name="orth">   18.94   18.94</time>
   <time name="total">   88.23   88.30</time>
   <energy>
    <i name="e_fr_energy">   -993.41436859 </i>
    <i name="e_wo_entrp">   -993.39201593 </i>
    <i name="e_0_energy">   -993.40319226 </i>
   </energy>
  </scstep>
  <scstep>
   <time name="diag">   33.29   33.31</time>
   <time name="diis">   31.43   31.43</time>
   <time name="orth">   19.01   19.01</time>
   <time name="total">   87.53   87.67</time>
   <energy>
    <i name="e_fr_energy">   -993.41438637 </i>
    <i name="e_wo_entrp">   -993.39203395 </i>
    <i name="e_0_energy">   -993.40321016 </i>
   </energy>
  </scstep>
  <scstep>
   <time name="diag">   33.38   33.38</time>
   <time name="diis">   30.79   30.83</time>
   <time name="orth">   18.99   18.99</time>
   <time name="total">   86.96   87.01</time>
   <energy>
    <i name="e_fr_energy">   -993.41440448 </i>
    <i name="e_wo_entrp">   -993.39205260 </i>
    <i name="e_0_energy">   -993.40322854 </i>
   </energy>
  </scstep>
  <scstep>
   <time name="diag">   33.27   33.31</time>
   <time name="diis">   29.81   29.83</time>
   <time name="orth">   18.97   18.98</time>
   <time name="total">   85.85   85.96</time>
   <energy>
    <i name="e_fr_energy">   -993.41443732 </i>
    <i name="e_wo_entrp">   -993.39208598 </i>
    <i name="e_0_energy">   -993.40326165 </i>
   </energy>
  </scstep>
  <scstep>
   <time name="diag">   33.35   33.35</time>
   <time name="diis">   29.41   29.44</time>
   <time name="orth">   18.95   18.94</time>
   <time name="total">   85.55   85.63</time>
   <energy>
    <i name="e_fr_energy">   -993.41447904 </i>
    <i name="e_wo_entrp">   -993.39212857 </i>
    <i name="e_0_energy">   -993.40330381 </i>
   </energy>
  </scstep>
  <scstep>
   <time name="diag">   33.35   33.35</time>
   <time name="diis">   28.93   28.95</time>
   <time name="orth">   18.94   18.95</time>
   <time name="total">   81.82   81.87</time>
   <energy>
    <i name="alphaZ">   5577.49782091 </i>
    <i name="ewald"> -62578.01923060 </i>
    <i name="hartreedc"> -19006.17756970 </i>
    <i name="XCdc">   3405.63324204 </i>
    <i name="pawpsdc"> 119051.95653141 </i>
    <i name="pawaedc">-118554.73741944 </i>
    <i name="eentropy">     -0.02234868 </i>
    <i name="bandstr">  -7206.45000682 </i>
    <i name="atom">  78316.90445604 </i>
    <i name="e_fr_energy">   -993.41452483 </i>
    <i name="e_wo_entrp">   -993.39217615 </i>
    <i name="e_0_energy">   -993.40335049 </i>
   </energy>
  </scstep>
  <structure>
   <crystal>
    <varray name="basis" >
     <v>      11.16654507       0.01566467       0.00182091 </v>
     <v>       0.01634631      11.30312493       0.00875840 </v>
     <v>       0.00253009       0.01189125      15.96286654 </v>
    </varray>
    <i name="volume">   2014.77749256 </i>
    <varray name="rec_basis" >
     <v>       0.08955340      -0.00012950      -0.00001410 </v>
     <v>      -0.00012410       0.08847134      -0.00006589 </v>
     <v>      -0.00001015      -0.00004853       0.06264543 </v>
    </varray>
   </crystal>
   <varray name="positions" >
    <v>       0.98597110       0.24538178       0.11427176 </v>
    <v>       0.00459508       0.24083449       0.61071134 </v>
    <v>       0.98597110       0.74538178       0.11427176 </v>
    <v>       0.00459508       0.74083449       0.61071134 </v>
    <v>       0.50431180       0.25012693       0.12299876 </v>
    <v>       0.49548134       0.24207460       0.60855304 </v>
    <v>       0.50431180       0.75012693       0.12299876 </v>
    <v>       0.49548134       0.74207460       0.60855304 </v>
    <v>       0.98668914       0.24647961       0.38448915 </v>
    <v>       0.99440141       0.24048224       0.88980302 </v>
    <v>       0.98668914       0.74647961       0.38448915 </v>
    <v>       0.99440141       0.74048224       0.88980302 </v>
    <v>       0.50437330       0.25203640       0.37708547 </v>
    <v>       0.50108775       0.24101045       0.89113763 </v>
    <v>       0.50437330       0.75203640       0.37708547 </v>
    <v>       0.50108775       0.74101045       0.89113763 </v>
    <v>       0.24310106       0.99921074       0.11497081 </v>
    <v>       0.24899334       0.00656984       0.61047317 </v>
    <v>       0.24310106       0.49921074       0.11497081 </v>
    <v>       0.24899334       0.50656984       0.61047317 </v>
    <v>       0.75075641       0.00180498       0.12079270 </v>
    <v>       0.74798472       0.00921677       0.60890635 </v>
    <v>       0.75075641       0.50180498       0.12079270 </v>
    <v>       0.74798472       0.50921677       0.60890635 </v>
    <v>       0.24534676       0.99895113       0.38393306 </v>
    <v>       0.25054724       0.00613696       0.88966622 </v>
    <v>       0.24534676       0.49895113       0.38393306 </v>
    <v>       0.25054724       0.50613696       0.88966622 </v>
    <v>       0.74923868       0.00153623       0.37794650 </v>
    <v>       0.74803777       0.00894018       0.89125919 </v>
    <v>       0.74923868       0.50153623       0.37794650 </v>
    <v>       0.74803777       0.50894018       0.89125919 </v>
    <v>       0.24537027       0.24802393       0.00194862 </v>
    <v>       0.49641624       0.49997004       0.49701385 </v>
    <v>       0.99647981       0.99796263       0.49923826 </v>
    <v>       0.49641624       0.99997004       0.49701385 </v>
    <v>       0.24537027       0.74802393       0.00194862 </v>
    <v>       0.75143085       0.74559199       0.25063266 </v>
    <v>       0.75143085       0.24559199       0.25063266 </v>
    <v>       0.99647981       0.49796263       0.49923826 </v>
    <v>       0.99443679       0.99863192       0.00347277 </v>
    <v>       0.99443679       0.49863192       0.00347277 </v>
    <v>       0.49673023       0.50070230       0.00766171 </v>
    <v>       0.74461614       0.25102552       0.00178425 </v>
    <v>       0.74578464       0.25092780       0.50063784 </v>
    <v>       0.49673023       0.00070230       0.00766171 </v>
    <v>       0.76477606       0.28667192       0.74893096 </v>
    <v>       0.24579778       0.74687051       0.48802604 </v>
    <v>       0.24579778       0.24687051       0.48802604 </v>
    <v>       0.74578464       0.75092780       0.50063784 </v>
    <v>       0.24594167       0.28456977       0.24783968 </v>
    <v>       0.26771862       0.28528635       0.75470041 </v>
    <v>       0.24594167       0.78456977       0.24783968 </v>
    <v>       0.76477606       0.78667192       0.74893096 </v>
    <v>       0.51787067       0.48963023       0.24980813 </v>
    <v>       0.74461614       0.75102552       0.00178425 </v>
    <v>       0.98838389       0.98399937       0.24933613 </v>
    <v>       0.01647274       0.96196348       0.74829115 </v>
    <v>       0.98838389       0.48399937       0.24933613 </v>
    <v>       0.01647274       0.46196348       0.74829115 </v>
    <v>       0.51787067       0.98963023       0.24980813 </v>
    <v>       0.51658239       0.96358574       0.74748784 </v>
    <v>       0.26771862       0.78528635       0.75470041 </v>
    <v>       0.51658239       0.46358574       0.74748784 </v>
    <v>       0.99572093       0.00438765       0.12540485 </v>
    <v>       0.99178564       0.01345083       0.63623822 </v>
    <v>       0.99572093       0.50438765       0.12540485 </v>
    <v>       0.99178564       0.51345083       0.63623822 </v>
    <v>       0.48754667       0.01023839       0.12975175 </v>
    <v>       0.48877424       0.01366716       0.63482554 </v>
    <v>       0.48754667       0.51023839       0.12975175 </v>
    <v>       0.48877424       0.51366716       0.63482554 </v>
    <v>       0.99585957       0.99865064       0.37787948 </v>
    <v>       0.98378908       0.02175144       0.85406418 </v>
    <v>       0.99585957       0.49865064       0.37787948 </v>
    <v>       0.98378908       0.52175144       0.85406418 </v>
    <v>       0.49248660       0.00346943       0.37454795 </v>
    <v>       0.48151098       0.02388472       0.85271840 </v>
    <v>       0.49248660       0.50346943       0.37454795 </v>
    <v>       0.48151098       0.52388472       0.85271840 </v>
    <v>       0.23534560       0.23034458       0.36410245 </v>
    <v>       0.24090453       0.23707724       0.86728648 </v>
    <v>       0.23534560       0.73034458       0.36410245 </v>
    <v>       0.24090453       0.73707724       0.86728648 </v>
    <v>       0.74789711       0.25668266       0.37596655 </v>
    <v>       0.73463641       0.23023661       0.85711727 </v>
    <v>       0.74789711       0.75668266       0.37596655 </v>
    <v>       0.73463641       0.73023661       0.85711727 </v>
    <v>       0.23639568       0.23815474       0.12877561 </v>
    <v>       0.23370631       0.22100817       0.65163239 </v>
    <v>       0.23639568       0.73815474       0.12877561 </v>
    <v>       0.23370631       0.72100817       0.65163239 </v>
    <v>       0.74758846       0.25256918       0.12668433 </v>
    <v>       0.73369870       0.23084411       0.63994195 </v>
    <v>       0.74758846       0.75256918       0.12668433 </v>
    <v>       0.73369870       0.73084411       0.63994195 </v>
    <v>       0.15460727       0.44265652       0.25038815 </v>
    <v>       0.40403266       0.36331215       0.25070737 </v>
    <v>       0.65803633       0.39713033       0.24991662 </v>
    <v>       0.90753305       0.33784861       0.25024838 </v>
    <v>       0.15460727       0.94265652       0.25038815 </v>
    <v>       0.40403266       0.86331215       0.25070737 </v>
    <v>       0.65803633       0.89713033       0.24991662 </v>
    <v>       0.90753305       0.83784861       0.25024838 </v>
    <v>       0.12372911       0.12023727       0.50182602 </v>
    <v>       0.37201966       0.12622973       0.50035998 </v>
    <v>       0.62181820       0.12242000       0.49871297 </v>
    <v>       0.87398243       0.12615062       0.50088241 </v>
    <v>       0.12149658       0.37098008       0.50355964 </v>
    <v>       0.36834538       0.37374398       0.50094091 </v>
    <v>       0.61820461       0.37567984       0.50607282 </v>
    <v>       0.87201001       0.37536162       0.50816444 </v>
    <v>       0.12372911       0.62023727       0.50182602 </v>
    <v>       0.37201966       0.62622973       0.50035998 </v>
    <v>       0.62181820       0.62242000       0.49871297 </v>
    <v>       0.87398243       0.62615062       0.50088241 </v>
    <v>       0.12149658       0.87098008       0.50355964 </v>
    <v>       0.36834538       0.87374398       0.50094091 </v>
    <v>       0.61820461       0.87567984       0.50607282 </v>
    <v>       0.87201001       0.87536162       0.50816444 </v>
    <v>       0.18744675       0.43577784       0.75069880 </v>
    <v>       0.43858501       0.31239507       0.74974665 </v>
    <v>       0.68772487       0.43916923       0.74908090 </v>
    <v>       0.93671583       0.31159272       0.74871057 </v>
    <v>       0.18744675       0.93577784       0.75069880 </v>
    <v>       0.43858501       0.81239507       0.74974665 </v>
    <v>       0.68772487       0.93916923       0.74908090 </v>
    <v>       0.93671583       0.81159272       0.74871057 </v>
    <v>       0.12169145       0.12191555       0.99688623 </v>
    <v>       0.37144009       0.12594369       0.99963735 </v>
    <v>       0.62267793       0.12425236       0.00200437 </v>
    <v>       0.87088410       0.12747967       0.99980586 </v>
    <v>       0.12024064       0.37304878       0.99637344 </v>
    <v>       0.36896174       0.37357851       0.99908171 </v>
    <v>       0.61960899       0.37617697       0.99641904 </v>
    <v>       0.87026196       0.37338845       0.99357003 </v>
    <v>       0.12169145       0.62191555       0.99688623 </v>
    <v>       0.37144009       0.62594369       0.99963735 </v>
    <v>       0.62267793       0.62425236       0.00200437 </v>
    <v>       0.87088410       0.62747967       0.99980586 </v>
    <v>       0.12024064       0.87304878       0.99637344 </v>
    <v>       0.36896174       0.87357851       0.99908171 </v>
    <v>       0.61960899       0.87617697       0.99641904 </v>
    <v>       0.87026196       0.87338845       0.99357003 </v>
    <v>       0.60154015       0.14591977       0.25242021 </v>
    <v>       0.85903303       0.10498625       0.25303932 </v>
    <v>       0.60154015       0.64591977       0.25242021 </v>
    <v>       0.85903303       0.60498625       0.25303932 </v>
   </varray>
  </structure>
  <varray name="forces" >
   <v>       0.00547703       0.04377705      -0.00881911 </v>
   <v>      -0.02563184      -0.01103402       0.00559952 </v>
   <v>       0.00547703       0.04377705      -0.00881911 </v>
   <v>      -0.02563184      -0.01103402       0.00559952 </v>
   <v>       0.01352263       0.00909187      -0.01846002 </v>
   <v>      -0.04918318       0.03130937      -0.01617345 </v>
   <v>       0.01352263       0.00909187      -0.01846002 </v>
   <v>      -0.04918318       0.03130937      -0.01617345 </v>
   <v>       0.01407933      -0.00801844      -0.00350066 </v>
   <v>      -0.07277476       0.04870027       0.01045930 </v>
   <v>       0.01407933      -0.00801844      -0.00350066 </v>
   <v>      -0.07277476       0.04870027       0.01045930 </v>
   <v>       0.00889082      -0.00375244       0.00152903 </v>
   <v>      -0.00917765       0.07081730       0.03694670 </v>
   <v>       0.00889082      -0.00375244       0.00152903 </v>
   <v>      -0.00917765       0.07081730       0.03694670 </v>
   <v>      -0.01024197       0.04991715      -0.04220831 </v>
   <v>      -0.01959196      -0.01585239      -0.01308971 </v>
   <v>      -0.01024197       0.04991715      -0.04220831 </v>
   <v>      -0.01959196      -0.01585239      -0.01308971 </v>
   <v>       0.00529440       0.02566575      -0.04403998 </v>
   <v>      -0.05007224      -0.06530602       0.02768985 </v>
   <v>       0.00529440       0.02566575      -0.04403998 </v>
   <v>      -0.05007224      -0.06530602       0.02768985 </v>
   <v>      -0.01369664       0.03180777       0.02611655 </v>
   <v>      -0.00697492       0.02042174       0.04483065 </v>
   <v>      -0.01369664       0.03180777       0.02611655 </v>
   <v>      -0.00697492       0.02042174       0.04483065 </v>
   <v>       0.00039899       0.01232706       0.02005871 </v>
   <v>      -0.05715769      -0.05360028       0.00203197 </v>
   <v>       0.00039899       0.01232706       0.02005871 </v>
   <v>      -0.05715769      -0.05360028       0.00203197 </v>
   <v>      -0.02267076      -0.00118969       0.06353385 </v>
   <v>      -0.05013150       0.02886528      -0.08378634 </v>
   <v>       0.00245461       0.02256678      -0.05342182 </v>
   <v>      -0.05013150       0.02886528      -0.08378634 </v>
   <v>      -0.02267076      -0.00118969       0.06353385 </v>
   <v>       0.03968751      -0.03531713       0.03777860 </v>
   <v>       0.03968751      -0.03531713       0.03777860 </v>
   <v>       0.00245461       0.02256678      -0.05342182 </v>
   <v>      -0.03403370      -0.00157653      -0.01037625 </v>
   <v>      -0.03403370      -0.00157653      -0.01037625 </v>
   <v>       0.00755265      -0.01121339       0.06093867 </v>
   <v>      -0.00596249       0.00512153       0.00921599 </v>
   <v>      -0.00634828      -0.02942506      -0.00351890 </v>
   <v>       0.00755265      -0.01121339       0.06093867 </v>
   <v>      -0.01734203      -0.03872156      -0.03929610 </v>
   <v>      -0.01344676      -0.00389308      -0.01345206 </v>
   <v>      -0.01344676      -0.00389308      -0.01345206 </v>
   <v>      -0.00634828      -0.02942506      -0.00351890 </v>
   <v>       0.01063960       0.07300587      -0.03201192 </v>
   <v>      -0.02138544      -0.06087759      -0.09032974 </v>
   <v>       0.01063960       0.07300587      -0.03201192 </v>
   <v>      -0.01734203      -0.03872156      -0.03929610 </v>
   <v>      -0.02029609      -0.07364587       0.02849689 </v>
   <v>      -0.00596249       0.00512153       0.00921599 </v>
   <v>       0.04484162      -0.03627563       0.01441315 </v>
   <v>      -0.05338929       0.03665345      -0.02106107 </v>
   <v>       0.04484162      -0.03627563       0.01441315 </v>
   <v>      -0.05338929       0.03665345      -0.02106107 </v>
   <v>      -0.02029609      -0.07364587       0.02849689 </v>
   <v>      -0.02966796       0.03586449      -0.01959007 </v>
   <v>      -0.02138544      -0.06087759      -0.09032974 </v>
   <v>      -0.02966796       0.03586449      -0.01959007 </v>
   <v>      -0.02208990       0.03629883       0.03836244 </v>
   <v>       0.02806155       0.03956624       0.03270572 </v>
   <v>      -0.02208990       0.03629883       0.03836244 </v>
   <v>       0.02806155       0.03956624       0.03270572 </v>
   <v>      -0.01408676       0.06511456       0.06632558 </v>
   <v>      -0.01433273       0.02980613       0.00661591 </v>
   <v>      -0.01408676       0.06511456       0.06632558 </v>
   <v>      -0.01433273       0.02980613       0.00661591 </v>
   <v>       0.00344988       0.01428975      -0.05350284 </v>
   <v>       0.03188907       0.03876094       0.03453560 </v>
   <v>       0.00344988       0.01428975      -0.05350284 </v>
   <v>       0.03188907       0.03876094       0.03453560 </v>
   <v>      -0.03118811       0.07192913      -0.07312907 </v>
   <v>       0.02323132       0.02724586       0.02316936 </v>
   <v>      -0.03118811       0.07192913      -0.07312907 </v>
   <v>       0.02323132       0.02724586       0.02316936 </v>
   <v>      -0.02807806      -0.00073343      -0.00770190 </v>
   <v>       0.04601129      -0.02857920       0.01623868 </v>
   <v>      -0.02807806      -0.00073343      -0.00770190 </v>
   <v>       0.04601129      -0.02857920       0.01623868 </v>
   <v>       0.01151615      -0.06926803       0.00013338 </v>
   <v>       0.01975475      -0.01093718      -0.00210201 </v>
   <v>       0.01151615      -0.06926803       0.00013338 </v>
   <v>       0.01975475      -0.01093718      -0.00210201 </v>
   <v>      -0.02951710      -0.01099431       0.04151457 </v>
   <v>       0.01292260      -0.05576324       0.04597278 </v>
   <v>      -0.02951710      -0.01099431       0.04151457 </v>
   <v>       0.01292260      -0.05576324       0.04597278 </v>
   <v>       0.02053765      -0.06441941      -0.00903103 </v>
   <v>       0.01474673      -0.06542326       0.04797333 </v>
   <v>       0.02053765      -0.06441941      -0.00903103 </v>
   <v>       0.01474673      -0.06542326       0.04797333 </v>
   <v>       0.04289993       0.09089771      -0.02657544 </v>
   <v>       0.07517103      -0.04178957       0.00580403 </v>
   <v>       0.01793351      -0.05023745      -0.00137537 </v>
   <v>       0.00435069      -0.07020387      -0.01977892 </v>
   <v>       0.04289993       0.09089771      -0.02657544 </v>
   <v>       0.07517103      -0.04178957       0.00580403 </v>
   <v>       0.01793351      -0.05023745      -0.00137537 </v>
   <v>       0.00435069      -0.07020387      -0.01977892 </v>
   <v>      -0.00524068      -0.03637497      -0.05560630 </v>
   <v>       0.01194366       0.03012658      -0.07254267 </v>
   <v>       0.00926117      -0.02111985      -0.00061400 </v>
   <v>       0.02018483       0.02081230       0.00684650 </v>
   <v>       0.00349096      -0.00904253       0.03730396 </v>
   <v>       0.03030867       0.00994296       0.00556883 </v>
   <v>       0.01801155      -0.01862220      -0.03309234 </v>
   <v>      -0.02773568      -0.02081833       0.02648903 </v>
   <v>      -0.00524068      -0.03637497      -0.05560630 </v>
   <v>       0.01194366       0.03012658      -0.07254267 </v>
   <v>       0.00926117      -0.02111985      -0.00061400 </v>
   <v>       0.02018483       0.02081230       0.00684650 </v>
   <v>       0.00349096      -0.00904253       0.03730396 </v>
   <v>       0.03030867       0.00994296       0.00556883 </v>
   <v>       0.01801155      -0.01862220      -0.03309234 </v>
   <v>      -0.02773568      -0.02081833       0.02648903 </v>
   <v>       0.05096756       0.04568723       0.03850539 </v>
   <v>       0.04648020      -0.06621415       0.01901615 </v>
   <v>       0.05186568       0.05991060       0.03648308 </v>
   <v>       0.03157761      -0.03154065       0.00224491 </v>
   <v>       0.05096756       0.04568723       0.03850539 </v>
   <v>       0.04648020      -0.06621415       0.01901615 </v>
   <v>       0.05186568       0.05991060       0.03648308 </v>
   <v>       0.03157761      -0.03154065       0.00224491 </v>
   <v>       0.06700451      -0.01085898       0.02639762 </v>
   <v>      -0.00983592       0.05540594       0.05235560 </v>
   <v>      -0.01692038      -0.03227865      -0.01772145 </v>
   <v>      -0.03296380       0.00712314      -0.03437613 </v>
   <v>       0.02139539      -0.03597723      -0.06820641 </v>
   <v>      -0.00207903       0.05123430      -0.02957032 </v>
   <v>      -0.01821254      -0.02137617       0.01269860 </v>
   <v>      -0.02824039       0.03842769       0.00199473 </v>
   <v>       0.06700451      -0.01085898       0.02639762 </v>
   <v>      -0.00983592       0.05540594       0.05235560 </v>
   <v>      -0.01692038      -0.03227865      -0.01772145 </v>
   <v>      -0.03296380       0.00712314      -0.03437613 </v>
   <v>       0.02139539      -0.03597723      -0.06820641 </v>
   <v>      -0.00207903       0.05123430      -0.02957032 </v>
   <v>      -0.01821254      -0.02137617       0.01269860 </v>
   <v>      -0.02824039       0.03842769       0.00199473 </v>
   <v>      -0.02480306       0.01647642       0.00817651 </v>
   <v>       0.02669417      -0.07269726      -0.00500999 </v>
   <v>      -0.02480306       0.01647642       0.00817651 </v>
   <v>       0.02669417      -0.07269726      -0.00500999 </v>
  </varray>
  <varray name="stress" >
   <v>      -1.86650742      -0.19402434      -0.12129305 </v>
   <v>      -0.19402438      -0.57100144      -0.17676648 </v>
   <v>      -0.12129319      -0.17676654       1.19442453 </v>
  </varray>
  <energy>
   <i name="e_fr_energy">   -993.41452483 </i>
   <i name="e_wo_entrp">   -993.40335049 </i>
   <i name="e_0_energy">     -0.02234868 </i>
  </energy>
  <time name="totalsc"> 1070.89 1073.20</time>
 </calculation>
 <calculation>
  <scstep>
   <time name="dav">  283.79  283.79</time>
   <time name="total">  287.59  287.65</time>
   <energy>
    <i name="alphaZ">   5580.34309167 </i>
    <i name="ewald"> -62591.38219686 </i>
    <i name="hartreedc"> -19007.21081548 </i>
    <i name="XCdc">   3406.32702539 </i>
    <i name="pawpsdc"> 119051.81560100 </i>
    <i name="pawaedc">-118554.59640398 </i>
    <i name="eentropy">     -0.02222663 </i>
    <i name="bandstr">  -7195.59595936 </i>
    <i name="atom">  78316.90445604 </i>
    <i name="e_fr_energy">   -993.41742820 </i>
    <i name="e_wo_entrp">   -993.39520157 </i>
    <i name="e_0_energy">   -993.40631489 </i>
   </energy>
  </scstep>
  <scstep>
   <time name="diag">   33.34   33.34</time>
   <time name="diis">   54.05   54.06</time>
   <time name="orth">   18.93   18.93</time>
   <time name="total">  110.10  110.14</time>
   <energy>
    <i name="e_fr_energy">   -993.43747510 </i>
    <i name="e_wo_entrp">   -993.41521167 </i>
    <i name="e_0_energy">   -993.42634338 </i>
   </energy>
  </scstep>
  <scstep>
   <time name="diag">   33.32   33.32</time>
   <time name="diis">   55.87   55.89</time>
   <time name="orth">   18.92   18.92</time>
   <time name="total">  111.90  111.96</time>
   <energy>
    <i name="e_fr_energy">   -993.43906815 </i>
    <i name="e_wo_entrp">   -993.41678222 </i>
    <i name="e_0_energy">   -993.42792518 </i>
   </energy>
  </scstep>
  <scstep>
   <time name="diag">   33.31   33.32</time>
   <time name="diis">   57.64   57.64</time>
   <time name="orth">   18.97   18.96</time>
   <time name="total">  113.72  113.74</time>
   <energy>
    <i name="e_fr_energy">   -993.43819192 </i>
    <i name="e_wo_entrp">   -993.41588994 </i>
    <i name="e_0_energy">   -993.42704093 </i>
   </energy>
  </scstep>
  <scstep>
   <time name="diag">   33.33   33.33</time>
   <time name="diis">   51.53   51.54</time>
   <time name="orth">   18.99   18.98</time>
   <time name="total">  107.62  107.67</time>
   <energy>
    <i name="e_fr_energy">   -993.43799250 </i>
    <i name="e_wo_entrp">   -993.41569664 </i>
    <i name="e_0_energy">   -993.42684457 </i>
   </energy>
  </scstep>
  <scstep>
   <time name="diag">   33.33   33.34</time>
   <time name="diis">   33.50   33.53</time>
   <time name="orth">   18.95   18.96</time>
   <time name="total">   89.55   89.64</time>
   <energy>
    <i name="e_fr_energy">   -993.43801715 </i>
    <i name="e_wo_entrp">   -993.41571840 </i>
    <i name="e_0_energy">   -993.42686778 </i>
   </energy>
  </scstep>
  <scstep>
   <time name="diag">   33.42   33.44</time>
   <time name="diis">   32.85   32.87</time>
   <time name="orth">   19.03   19.04</time>
   <time name="total">   89.11   89.19</time>
   <energy>
    <i name="e_fr_energy">   -993.43804098 </i>
    <i name="e_wo_entrp">   -993.41574254 </i>
    <i name="e_0_energy">   -993.42689176 </i>
   </energy>
  </scstep>
  <scstep>
   <time name="diag">   33.41   33.41</time>
   <time name="diis">   32.54   32.56</time>
   <time name="orth">   19.00   18.99</time>
   <time name="total">   85.54   85.60</time>
   <energy>
    <i name="alphaZ">   5580.34309167 </i>
    <i name="ewald"> -62591.38219686 </i>
    <i name="hartreedc"> -18998.37515197 </i>
    <i name="XCdc">   3405.75365459 </i>
    <i name="pawpsdc"> 119169.60150313 </i>
    <i name="pawaedc">-118672.43154122 </i>
    <i name="eentropy">     -0.02229936 </i>
    <i name="bandstr">  -7203.82958366 </i>
    <i name="atom">  78316.90445604 </i>
    <i name="e_fr_energy">   -993.43806765 </i>
    <i name="e_wo_entrp">   -993.41576829 </i>
    <i name="e_0_energy">   -993.42691797 </i>
   </energy>
  </scstep>
  <structure>
   <crystal>
    <varray name="basis" >
     <v>      11.15800026       0.01477278       0.00126548 </v>
     <v>       0.01543440      11.30047741       0.00794287 </v>
     <v>       0.00173355       0.01073163      15.97068103 </v>
    </varray>
    <i name="volume">   2013.75021030 </i>
    <varray name="rec_basis" >
     <v>       0.08962196      -0.00012240      -0.00000965 </v>
     <v>      -0.00011715       0.08849204      -0.00005945 </v>
     <v>      -0.00000704      -0.00004400       0.06261477 </v>
    </varray>
   </crystal>
   <varray name="positions" >
    <v>       0.98599449       0.24556862       0.11424501 </v>
    <v>       0.00448441       0.24078753       0.61072830 </v>
    <v>       0.98599449       0.74556862       0.11424501 </v>
    <v>       0.00448441       0.74078753       0.61072830 </v>
    <v>       0.50437018       0.25016571       0.12294294 </v>
    <v>       0.49526867       0.24220858       0.60850411 </v>
    <v>       0.50437018       0.75016571       0.12294294 </v>
    <v>       0.49526867       0.74220858       0.60850411 </v>
    <v>       0.98675002       0.24644532       0.38447859 </v>
    <v>       0.99408669       0.24069050       0.88983455 </v>
    <v>       0.98675002       0.74644532       0.38447859 </v>
    <v>       0.99408669       0.74069050       0.88983455 </v>
    <v>       0.50441173       0.25202032       0.37709009 </v>
    <v>       0.50104764       0.24131265       0.89124913 </v>
    <v>       0.50441173       0.75202032       0.37709009 </v>
    <v>       0.50104764       0.74131265       0.89124913 </v>
    <v>       0.24305653       0.99942399       0.11484313 </v>
    <v>       0.24890880       0.00650234       0.61043366 </v>
    <v>       0.24305653       0.49942399       0.11484313 </v>
    <v>       0.24890880       0.50650234       0.61043366 </v>
    <v>       0.75077916       0.00191463       0.12065954 </v>
    <v>       0.74776879       0.00893825       0.60899021 </v>
    <v>       0.75077916       0.50191463       0.12065954 </v>
    <v>       0.74776879       0.50893825       0.60899021 </v>
    <v>       0.24528737       0.99908689       0.38401192 </v>
    <v>       0.25051695       0.00622402       0.88980166 </v>
    <v>       0.24528737       0.49908689       0.38401192 </v>
    <v>       0.25051695       0.50622402       0.88980166 </v>
    <v>       0.74924031       0.00158878       0.37800709 </v>
    <v>       0.74779117       0.00871174       0.89126548 </v>
    <v>       0.74924031       0.50158878       0.37800709 </v>
    <v>       0.74779117       0.50871174       0.89126548 </v>
    <v>       0.24527229       0.24801879       0.00214064 </v>
    <v>       0.49619953       0.50009381       0.49676059 </v>
    <v>       0.99649031       0.99805911       0.49907676 </v>
    <v>       0.49619953       0.00009381       0.49676059 </v>
    <v>       0.24527229       0.74801879       0.00214064 </v>
    <v>       0.75160250       0.74544090       0.25074689 </v>
    <v>       0.75160250       0.24544090       0.25074689 </v>
    <v>       0.99649031       0.49805911       0.49907676 </v>
    <v>       0.99428977       0.99862543       0.00344143 </v>
    <v>       0.99428977       0.49862543       0.00344143 </v>
    <v>       0.49676289       0.50065420       0.00784590 </v>
    <v>       0.74459034       0.25104738       0.00181209 </v>
    <v>       0.74575740       0.25080226       0.50062727 </v>
    <v>       0.49676289       0.00065420       0.00784590 </v>
    <v>       0.76470140       0.28650688       0.74881230 </v>
    <v>       0.24573972       0.74685402       0.48798540 </v>
    <v>       0.24573972       0.24685402       0.48798540 </v>
    <v>       0.74575740       0.75080226       0.50062727 </v>
    <v>       0.24598721       0.28488141       0.24774276 </v>
    <v>       0.26762667       0.28502693       0.75442757 </v>
    <v>       0.24598721       0.78488141       0.24774276 </v>
    <v>       0.76470140       0.78650688       0.74881230 </v>
    <v>       0.51778343       0.48931593       0.24989443 </v>
    <v>       0.74459034       0.75104738       0.00181209 </v>
    <v>       0.98857784       0.98384423       0.24937975 </v>
    <v>       0.01624186       0.96212031       0.74822744 </v>
    <v>       0.98857784       0.48384423       0.24937975 </v>
    <v>       0.01624186       0.46212031       0.74822744 </v>
    <v>       0.51778343       0.98931593       0.24989443 </v>
    <v>       0.51645400       0.96373905       0.74742856 </v>
    <v>       0.26762667       0.78502693       0.75442757 </v>
    <v>       0.51645400       0.46373905       0.74742856 </v>
    <v>       0.99562524       0.00454258       0.12552071 </v>
    <v>       0.99190660       0.01361943       0.63633696 </v>
    <v>       0.99562524       0.50454258       0.12552071 </v>
    <v>       0.99190660       0.51361943       0.63633696 </v>
    <v>       0.48748536       0.01051618       0.12995205 </v>
    <v>       0.48871213       0.01379444       0.63484547 </v>
    <v>       0.48748536       0.51051618       0.12995205 </v>
    <v>       0.48871213       0.51379444       0.63484547 </v>
    <v>       0.99587442       0.99871178       0.37771775 </v>
    <v>       0.98392658       0.02191657       0.85416844 </v>
    <v>       0.99587442       0.49871178       0.37771775 </v>
    <v>       0.98392658       0.52191657       0.85416844 </v>
    <v>       0.49235146       0.00377685       0.37432679 </v>
    <v>       0.48161116       0.02400079       0.85278834 </v>
    <v>       0.49235146       0.50377685       0.37432679 </v>
    <v>       0.48161116       0.52400079       0.85278834 </v>
    <v>       0.23522430       0.23034165       0.36407918 </v>
    <v>       0.24110348       0.23695494       0.86733560 </v>
    <v>       0.23522430       0.73034165       0.36407918 </v>
    <v>       0.24110348       0.73695494       0.86733560 </v>
    <v>       0.74794729       0.25638695       0.37596711 </v>
    <v>       0.73472182       0.23018982       0.85711094 </v>
    <v>       0.74794729       0.75638695       0.37596711 </v>
    <v>       0.73472182       0.73018982       0.85711094 </v>
    <v>       0.23626820       0.23810786       0.12890112 </v>
    <v>       0.23376246       0.22076994       0.65177145 </v>
    <v>       0.23626820       0.73810786       0.12890112 </v>
    <v>       0.23376246       0.72076994       0.65177145 </v>
    <v>       0.74767760       0.25229414       0.12665718 </v>
    <v>       0.73376279       0.23056464       0.64008708 </v>
    <v>       0.74767760       0.75229414       0.12665718 </v>
    <v>       0.73376279       0.73056464       0.64008708 </v>
    <v>       0.15479206       0.44304430       0.25030760 </v>
    <v>       0.40435768       0.36313332       0.25072497 </v>
    <v>       0.65811412       0.39691581       0.24991257 </v>
    <v>       0.90755230       0.33754901       0.25018877 </v>
    <v>       0.15479206       0.94304430       0.25030760 </v>
    <v>       0.40435768       0.86313332       0.25072497 </v>
    <v>       0.65811412       0.89691581       0.24991257 </v>
    <v>       0.90755230       0.83754901       0.25018877 </v>
    <v>       0.12370673       0.12008222       0.50165805 </v>
    <v>       0.37207112       0.12635848       0.50014067 </v>
    <v>       0.62185834       0.12232981       0.49871116 </v>
    <v>       0.87406950       0.12623931       0.50090304 </v>
    <v>       0.12151169       0.37094135       0.50367240 </v>
    <v>       0.36847625       0.37378622       0.50095771 </v>
    <v>       0.61828257       0.37560036       0.50597284 </v>
    <v>       0.87189030       0.37527284       0.50824455 </v>
    <v>       0.12370673       0.62008222       0.50165805 </v>
    <v>       0.37207112       0.62635848       0.50014067 </v>
    <v>       0.62185834       0.62232981       0.49871116 </v>
    <v>       0.87406950       0.62623931       0.50090304 </v>
    <v>       0.12151169       0.87094135       0.50367240 </v>
    <v>       0.36847625       0.87378622       0.50095771 </v>
    <v>       0.61828257       0.87560036       0.50597284 </v>
    <v>       0.87189030       0.87527284       0.50824455 </v>
    <v>       0.18766663       0.43597241       0.75081503 </v>
    <v>       0.43878622       0.31211212       0.74980425 </v>
    <v>       0.68794854       0.43942451       0.74919100 </v>
    <v>       0.93685245       0.31145791       0.74871741 </v>
    <v>       0.18766663       0.93597241       0.75081503 </v>
    <v>       0.43878622       0.81211212       0.74980425 </v>
    <v>       0.68794854       0.93942451       0.74919100 </v>
    <v>       0.93685245       0.81145791       0.74871741 </v>
    <v>       0.12198098       0.12186872       0.99696600 </v>
    <v>       0.37139721       0.12618006       0.99979545 </v>
    <v>       0.62260504       0.12411475       0.00195089 </v>
    <v>       0.87074167       0.12751038       0.99970196 </v>
    <v>       0.12033334       0.37289531       0.99616738 </v>
    <v>       0.36895245       0.37379729       0.99899222 </v>
    <v>       0.61953043       0.37608580       0.99645747 </v>
    <v>       0.87013971       0.37355263       0.99357598 </v>
    <v>       0.12198098       0.62186872       0.99696600 </v>
    <v>       0.37139721       0.62618006       0.99979545 </v>
    <v>       0.62260504       0.62411475       0.00195089 </v>
    <v>       0.87074167       0.62751038       0.99970196 </v>
    <v>       0.12033334       0.87289531       0.99616738 </v>
    <v>       0.36895245       0.87379729       0.99899222 </v>
    <v>       0.61953043       0.87608580       0.99645747 </v>
    <v>       0.87013971       0.87355263       0.99357598 </v>
    <v>       0.60143288       0.14599022       0.25244490 </v>
    <v>       0.85914882       0.10467582       0.25302434 </v>
    <v>       0.60143288       0.64599022       0.25244490 </v>
    <v>       0.85914882       0.60467582       0.25302434 </v>
   </varray>
  </structure>
  <varray name="forces" >
   <v>      -0.00035013       0.03130304      -0.01099602 </v>
   <v>      -0.02598237      -0.00758864       0.01539688 </v>
   <v>      -0.00035013       0.03130304      -0.01099602 </v>
   <v>      -0.02598237      -0.00758864       0.01539688 </v>
   <v>       0.01780525      -0.00677759      -0.00635263 </v>
   <v>      -0.03145216       0.02734166      -0.00306360 </v>
   <v>       0.01780525      -0.00677759      -0.00635263 </v>
   <v>      -0.03145216       0.02734166      -0.00306360 </v>
   <v>       0.01132428      -0.00862081      -0.01087833 </v>
   <v>      -0.04342676       0.03128554       0.00040006 </v>
   <v>       0.01132428      -0.00862081      -0.01087833 </v>
   <v>      -0.04342676       0.03128554       0.00040006 </v>
   <v>       0.01537140      -0.01155551      -0.01306000 </v>
   <v>      -0.02875497       0.05138344       0.02317220 </v>
   <v>       0.01537140      -0.01155551      -0.01306000 </v>
   <v>      -0.02875497       0.05138344       0.02317220 </v>
   <v>      -0.01259166       0.05419866      -0.03625488 </v>
   <v>      -0.02409217      -0.01997037       0.01581485 </v>
   <v>      -0.01259166       0.05419866      -0.03625488 </v>
   <v>      -0.02409217      -0.01997037       0.01581485 </v>
   <v>       0.00475448       0.02925791      -0.02186283 </v>
   <v>      -0.04435247      -0.05336617       0.01773476 </v>
   <v>       0.00475448       0.02925791      -0.02186283 </v>
   <v>      -0.04435247      -0.05336617       0.01773476 </v>
   <v>      -0.01704798       0.02961869       0.00279990 </v>
   <v>      -0.00327587       0.01316041       0.01995082 </v>
   <v>      -0.01704798       0.02961869       0.00279990 </v>
   <v>      -0.00327587       0.01316041       0.01995082 </v>
   <v>      -0.00124395       0.00944952       0.00203332 </v>
   <v>      -0.05705044      -0.03079425      -0.00469348 </v>
   <v>      -0.00124395       0.00944952       0.00203332 </v>
   <v>      -0.05705044      -0.03079425      -0.00469348 </v>
   <v>       0.00027495       0.00319071       0.00215905 </v>
   <v>       0.01098429       0.00472204      -0.05413320 </v>
   <v>      -0.04183137      -0.02357550      -0.03297831 </v>
   <v>       0.01098429       0.00472204      -0.05413320 </v>
   <v>       0.00027495       0.00319071       0.00215905 </v>
   <v>       0.00183198      -0.06408475       0.00104112 </v>
   <v>       0.00183198      -0.06408475       0.00104112 </v>
   <v>      -0.04183137      -0.02357550      -0.03297831 </v>
   <v>      -0.00718919       0.01474659      -0.00196396 </v>
   <v>      -0.00718919       0.01474659      -0.00196396 </v>
   <v>      -0.01845175       0.01280984       0.04897516 </v>
   <v>      -0.01103725      -0.01404017       0.01792592 </v>
   <v>      -0.01152928      -0.01871794      -0.00979826 </v>
   <v>      -0.01845175       0.01280984       0.04897516 </v>
   <v>      -0.01261826      -0.01470327       0.03019888 </v>
   <v>      -0.01720955       0.01107616      -0.04111647 </v>
   <v>      -0.01720955       0.01107616      -0.04111647 </v>
   <v>      -0.01152928      -0.01871794      -0.00979826 </v>
   <v>       0.00290311       0.05145094      -0.00422994 </v>
   <v>      -0.00413074      -0.01134234       0.08155873 </v>
   <v>       0.00290311       0.05145094      -0.00422994 </v>
   <v>      -0.01261826      -0.01470327       0.03019888 </v>
   <v>       0.01237023      -0.01265143      -0.01341104 </v>
   <v>      -0.01103725      -0.01404017       0.01792592 </v>
   <v>       0.00862768      -0.02049774      -0.01235650 </v>
   <v>      -0.00466210       0.03168176       0.03639036 </v>
   <v>       0.00862768      -0.02049774      -0.01235650 </v>
   <v>      -0.00466210       0.03168176       0.03639036 </v>
   <v>       0.01237023      -0.01265143      -0.01341104 </v>
   <v>      -0.02383683       0.01840855       0.02894612 </v>
   <v>      -0.00413074      -0.01134234       0.08155873 </v>
   <v>      -0.02383683       0.01840855       0.02894612 </v>
   <v>      -0.01487729       0.02147022      -0.00636116 </v>
   <v>       0.02037100       0.03847286       0.00128550 </v>
   <v>      -0.01487729       0.02147022      -0.00636116 </v>
   <v>       0.02037100       0.03847286       0.00128550 </v>
   <v>      -0.01399740       0.05457249       0.04616969 </v>
   <v>      -0.01727406       0.02279119      -0.01224973 </v>
   <v>      -0.01399740       0.05457249       0.04616969 </v>
   <v>      -0.01727406       0.02279119      -0.01224973 </v>
   <v>       0.00708945      -0.00166273      -0.00379398 </v>
   <v>       0.02750939       0.01469537       0.00635129 </v>
   <v>       0.00708945      -0.00166273      -0.00379398 </v>
   <v>       0.02750939       0.01469537       0.00635129 </v>
   <v>      -0.03528991       0.06230509      -0.02765141 </v>
   <v>       0.02923152       0.00871925      -0.01321102 </v>
   <v>      -0.03528991       0.06230509      -0.02765141 </v>
   <v>       0.02923152       0.00871925      -0.01321102 </v>
   <v>      -0.02622672       0.01376111      -0.00398131 </v>
   <v>       0.04840951      -0.01270916      -0.02953895 </v>
   <v>      -0.02622672       0.01376111      -0.00398131 </v>
   <v>       0.04840951      -0.01270916      -0.02953895 </v>
   <v>       0.01999097      -0.06671402       0.01422644 </v>
   <v>       0.02321353       0.00443767      -0.01746464 </v>
   <v>       0.01999097      -0.06671402       0.01422644 </v>
   <v>       0.02321353       0.00443767      -0.01746464 </v>
   <v>      -0.03260567       0.00429496       0.03840037 </v>
   <v>      -0.00347571      -0.08029384      -0.05156150 </v>
   <v>      -0.03260567       0.00429496       0.03840037 </v>
   <v>      -0.00347571      -0.08029384      -0.05156150 </v>
   <v>       0.01860585      -0.05709778      -0.00669184 </v>
   <v>       0.00542536      -0.05723833       0.01004643 </v>
   <v>       0.01860585      -0.05709778      -0.00669184 </v>
   <v>       0.00542536      -0.05723833       0.01004643 </v>
   <v>       0.07040631       0.07639763      -0.01447368 </v>
   <v>       0.05086040      -0.06322137       0.00674063 </v>
   <v>       0.01700941      -0.03154891       0.00713925 </v>
   <v>       0.04432306      -0.04936553      -0.00334072 </v>
   <v>       0.07040631       0.07639763      -0.01447368 </v>
   <v>       0.05086040      -0.06322137       0.00674063 </v>
   <v>       0.01700941      -0.03154891       0.00713925 </v>
   <v>       0.04432306      -0.04936553      -0.00334072 </v>
   <v>       0.01523008      -0.01737524      -0.04397468 </v>
   <v>      -0.00336988       0.02969115      -0.06047750 </v>
   <v>       0.00464937      -0.02253156       0.00172011 </v>
   <v>       0.02056247      -0.00601517       0.00525998 </v>
   <v>       0.00422201      -0.00871604       0.02388213 </v>
[...]
       <r>   -17.6918     0.0000    32.0000 </r>
       <r>   -17.5378     0.0000    32.0000 </r>
       <r>   -17.3839     0.0000    32.0000 </r>
       <r>   -17.2299     0.0000    32.0000 </r>
       <r>   -17.0759     0.0000    32.0000 </r>
       <r>   -16.9220     0.0000    32.0000 </r>
       <r>   -16.7680     0.0000    32.0000 </r>
       <r>   -16.6140     0.0000    32.0000 </r>
       <r>   -16.4601     0.0000    32.0000 </r>
       <r>   -16.3061     0.0000    32.0000 </r>
       <r>   -16.1521     0.0000    32.0000 </r>
       <r>   -15.9982     0.0000    32.0000 </r>
       <r>   -15.8442     0.0000    32.0000 </r>
       <r>   -15.6902     0.0000    32.0000 </r>
       <r>   -15.5363     0.0000    32.0000 </r>
       <r>   -15.3823     0.0294    32.0045 </r>
       <r>   -15.2283     9.2154    33.4234 </r>
       <r>   -15.0744    35.2670    38.8533 </r>
       <r>   -14.9204    33.9146    44.0750 </r>
       <r>   -14.7665    48.3545    51.5199 </r>
       <r>   -14.6125    39.3045    57.5714 </r>
       <r>   -14.4585    37.5131    63.3471 </r>
       <r>   -14.3046    56.4864    72.0441 </r>
       <r>   -14.1506    75.3916    83.6518 </r>
       <r>   -13.9966    80.5092    96.0474 </r>
       <r>   -13.8427    52.5771   104.1425 </r>
       <r>   -13.6887    53.6633   112.4048 </r>
       <r>   -13.5347    23.3420   115.9986 </r>
       <r>   -13.3808     0.0089   116.0000 </r>
       <r>   -13.2268     0.0000   116.0000 </r>
       <r>   -13.0728     0.0000   116.0000 </r>
       <r>   -12.9189     0.0005   116.0001 </r>
       <r>   -12.7649     7.9067   117.2174 </r>
       <r>   -12.6109    79.5442   129.4645 </r>
       <r>   -12.4570   103.9371   145.4672 </r>
       <r>   -12.3030   103.5247   161.4064 </r>
       <r>   -12.1490   123.4818   180.4184 </r>
       <r>   -11.9951    79.7044   192.6901 </r>
       <r>   -11.8411    71.9478   203.7676 </r>
       <r>   -11.6871    47.3773   211.0620 </r>
       <r>   -11.5332     6.0920   212.0000 </r>
       <r>   -11.3792     0.0000   212.0000 </r>
       <r>   -11.2252     0.0000   212.0000 </r>
       <r>   -11.0713     0.0000   212.0000 </r>
       <r>   -10.9173     0.0000   212.0000 </r>
       <r>   -10.7634     0.0000   212.0000 </r>
       <r>   -10.6094     0.0000   212.0000 </r>
       <r>   -10.4554     0.0000   212.0000 </r>
       <r>   -10.3015     0.0000   212.0000 </r>
       <r>   -10.1475     0.0000   212.0000 </r>
       <r>    -9.9935     0.0000   212.0000 </r>
       <r>    -9.8396     0.0000   212.0000 </r>
       <r>    -9.6856     0.0000   212.0000 </r>
       <r>    -9.5316     0.0000   212.0000 </r>
       <r>    -9.3777     0.0000   212.0000 </r>
       <r>    -9.2237     0.0000   212.0000 </r>
       <r>    -9.0697     0.0000   212.0000 </r>
       <r>    -8.9158     0.0000   212.0000 </r>
       <r>    -8.7618     0.0000   212.0000 </r>
       <r>    -8.6078     0.0000   212.0000 </r>
       <r>    -8.4539     0.0000   212.0000 </r>
       <r>    -8.2999     0.0000   212.0000 </r>
       <r>    -8.1459     0.0000   212.0000 </r>
       <r>    -7.9920     0.0000   212.0000 </r>
       <r>    -7.8380     0.0000   212.0000 </r>
       <r>    -7.6840     0.0000   212.0000 </r>
       <r>    -7.5301     0.0000   212.0000 </r>
       <r>    -7.3761     0.0000   212.0000 </r>
       <r>    -7.2221     0.0000   212.0000 </r>
       <r>    -7.0682     0.0000   212.0000 </r>
       <r>    -6.9142     0.0000   212.0000 </r>
       <r>    -6.7602     0.0000   212.0000 </r>
       <r>    -6.6063     0.0000   212.0000 </r>
       <r>    -6.4523     0.0000   212.0000 </r>
       <r>    -6.2984     0.0000   212.0000 </r>
       <r>    -6.1444     0.0000   212.0000 </r>
       <r>    -5.9904     0.0000   212.0000 </r>
       <r>    -5.8365     0.0000   212.0000 </r>
       <r>    -5.6825     0.0000   212.0000 </r>
       <r>    -5.5285     0.0000   212.0000 </r>
       <r>    -5.3746     0.0000   212.0000 </r>
       <r>    -5.2206     0.0000   212.0000 </r>
       <r>    -5.0666     0.0000   212.0000 </r>
       <r>    -4.9127     0.0000   212.0000 </r>
       <r>    -4.7587     0.0000   212.0000 </r>
       <r>    -4.6047     0.0000   212.0000 </r>
       <r>    -4.4508     0.0000   212.0000 </r>
       <r>    -4.2968     0.0000   212.0000 </r>
       <r>    -4.1428     0.0000   212.0000 </r>
       <r>    -3.9889     0.0000   212.0000 </r>
       <r>    -3.8349     0.0000   212.0000 </r>
       <r>    -3.6809     0.0000   212.0000 </r>
       <r>    -3.5270     0.0000   212.0000 </r>
       <r>    -3.3730     0.0000   212.0000 </r>
       <r>    -3.2190     0.0000   212.0000 </r>
       <r>    -3.0651     0.0000   212.0000 </r>
       <r>    -2.9111     0.3019   212.0465 </r>
       <r>    -2.7571     6.1688   212.9963 </r>
       <r>    -2.6032     4.1987   213.6427 </r>
       <r>    -2.4492     9.1224   215.0473 </r>
       <r>    -2.2953    19.6243   218.0687 </r>
       <r>    -2.1413    16.3273   220.5826 </r>
       <r>    -1.9873    16.1946   223.0760 </r>
       <r>    -1.8334    19.4770   226.0748 </r>
       <r>    -1.6794    32.8389   231.1308 </r>
       <r>    -1.5254    41.4272   237.5092 </r>
       <r>    -1.3715    53.4113   245.7327 </r>
       <r>    -1.2175    55.5184   254.2806 </r>
       <r>    -1.0635    82.0884   266.9194 </r>
       <r>    -0.9096    81.7741   279.5098 </r>
       <r>    -0.7556    90.2622   293.4070 </r>
       <r>    -0.6016    84.2177   306.3736 </r>
       <r>    -0.4477    58.4834   315.3781 </r>
       <r>    -0.2937    57.8735   324.2886 </r>
       <r>    -0.1397    76.3655   336.0462 </r>
       <r>     0.0142    60.6226   345.3800 </r>
       <r>     0.1682    68.9097   355.9897 </r>
       <r>     0.3222    58.4988   364.9965 </r>
       <r>     0.4761    49.6683   372.6437 </r>
       <r>     0.6301    57.1303   381.4398 </r>
       <r>     0.7841    52.2418   389.4832 </r>
       <r>     0.9380    69.1188   400.1251 </r>
       <r>     1.0920    67.0543   410.4492 </r>
       <r>     1.2460    79.9510   422.7589 </r>
       <r>     1.3999    76.5686   434.5478 </r>
       <r>     1.5539    78.3805   446.6157 </r>
       <r>     1.7079    64.3794   456.5279 </r>
       <r>     1.8618    10.7091   458.1767 </r>
       <r>     2.0158    31.7969   463.0723 </r>
       <r>     2.1697     6.0607   464.0055 </r>
       <r>     2.3237     9.7178   465.5017 </r>
       <r>     2.4777     3.2364   466.0000 </r>
       <r>     2.6316     0.0000   466.0000 </r>
       <r>     2.7856     0.0000   466.0000 </r>
       <r>     2.9396     0.0000   466.0000 </r>
       <r>     3.0935     0.0000   466.0000 </r>
       <r>     3.2475     0.0000   466.0000 </r>
       <r>     3.4015     0.0000   466.0000 </r>
       <r>     3.5554     0.0000   466.0000 </r>
       <r>     3.7094     0.0000   466.0000 </r>
       <r>     3.8634     0.0000   466.0000 </r>
       <r>     4.0173     0.0000   466.0000 </r>
       <r>     4.1713     4.0080   466.6171 </r>
       <r>     4.3253    35.4593   472.0766 </r>
       <r>     4.4792    64.2714   481.9722 </r>
       <r>     4.6332    64.8164   491.9517 </r>
       <r>     4.7872    80.5263   504.3499 </r>
       <r>     4.9411    73.6778   515.6938 </r>
       <r>     5.0951    89.6092   529.4905 </r>
       <r>     5.2491    87.0403   542.8917 </r>
       <r>     5.4030    64.8457   552.8757 </r>
       <r>     5.5570    61.4178   562.3319 </r>
       <r>     5.7110    70.1908   573.1389 </r>
       <r>     5.8649    86.9888   586.5321 </r>
       <r>     6.0189    62.2301   596.1134 </r>
       <r>     6.1728    14.2748   598.3112 </r>
       <r>     6.3268    10.9105   599.9911 </r>
       <r>     6.4808     9.0258   601.3807 </r>
       <r>     6.6347     6.0464   602.3117 </r>
       <r>     6.7887    18.9080   605.2229 </r>
       <r>     6.9427    16.9344   607.8302 </r>
       <r>     7.0966    11.7505   609.6393 </r>
       <r>     7.2506    24.4861   613.4094 </r>
       <r>     7.4046    16.6142   615.9674 </r>
       <r>     7.5585     8.3724   617.2564 </r>
       <r>     7.7125    20.2330   620.3716 </r>
       <r>     7.8665    26.0369   624.3804 </r>
       <r>     8.0204    23.3650   627.9778 </r>
       <r>     8.1744    23.3737   631.5765 </r>
       <r>     8.3284     7.9760   632.8046 </r>
       <r>     8.4823    28.8570   637.2476 </r>
       <r>     8.6363    17.9615   640.0130 </r>
       <r>     8.7903    30.6718   644.7354 </r>
       <r>     8.9442    36.3054   650.3252 </r>
       <r>     9.0982    38.3889   656.2357 </r>
       <r>     9.2522    40.0382   662.4002 </r>
       <r>     9.4061    46.1410   669.5044 </r>
       <r>     9.5601    48.6517   676.9950 </r>
       <r>     9.7141    43.4909   683.6911 </r>
       <r>     9.8680    49.7408   691.3495 </r>
       <r>    10.0220    52.0476   699.3630 </r>
       <r>    10.1760    55.0530   707.8393 </r>
       <r>    10.3299    58.1455   716.7917 </r>
       <r>    10.4839    50.3569   724.5449 </r>
       <r>    10.6378    49.7759   732.2087 </r>
       <r>    10.7918    48.0382   739.6049 </r>
       <r>    10.9458    54.5859   748.0092 </r>
       <r>    11.0997    57.3976   756.8465 </r>
       <r>    11.2537    55.2754   765.3570 </r>
       <r>    11.4077    17.1579   767.9987 </r>
       <r>    11.5616     0.0084   768.0000 </r>
       <r>    11.7156     0.0000   768.0000 </r>
       <r>    11.8696     0.0000   768.0000 </r>
       <r>    12.0235     0.0000   768.0000 </r>
       <r>    12.1775     0.0000   768.0000 </r>
       <r>    12.3315     0.0000   768.0000 </r>
       <r>    12.4854     0.0000   768.0000 </r>
       <r>    12.6394     0.0000   768.0000 </r>
       <r>    12.7934     0.0000   768.0000 </r>
       <r>    12.9473     0.0000   768.0000 </r>
       <r>    13.1013     0.0000   768.0000 </r>
       <r>    13.2553     0.0000   768.0000 </r>
       <r>    13.4092     0.0000   768.0000 </r>
      </set>
     </set>
    </array>
   </total>
  </dos>
 </calculation>
 <structure name="finalpos" >
  <crystal>
   <varray name="basis" >
    <v>      11.14000161       0.00443077       0.00439972 </v>
    <v>       0.00494523      11.29037664       0.00777941 </v>
    <v>       0.00621880       0.01044069      16.02967979 </v>
   </varray>
   <i name="volume">   2016.12842794 </i>
   <varray name="rec_basis" >
    <v>       0.08976662      -0.00003929      -0.00003480 </v>
    <v>      -0.00003521       0.08857106      -0.00005768 </v>
    <v>      -0.00002462      -0.00004297       0.06238432 </v>
   </varray>
  </crystal>
  <varray name="positions" >
   <v>       0.98684169       0.24768922       0.11170676 </v>
   <v>       0.00495789       0.23909925       0.61185218 </v>
   <v>       0.98684169       0.74768922       0.11170676 </v>
   <v>       0.00495789       0.73909925       0.61185218 </v>
   <v>       0.50608354       0.24752637       0.12494640 </v>
   <v>       0.49355818       0.24188415       0.60771717 </v>
   <v>       0.50608354       0.74752637       0.12494640 </v>
   <v>       0.49355818       0.74188415       0.60771717 </v>
   <v>       0.98763003       0.24487861       0.38555386 </v>
   <v>       0.99133499       0.24234146       0.88908015 </v>
   <v>       0.98763003       0.74487861       0.38555386 </v>
   <v>       0.99133499       0.74234146       0.88908015 </v>
   <v>       0.50758807       0.24780249       0.37666320 </v>
   <v>       0.50001652       0.24299741       0.89251277 </v>
   <v>       0.50758807       0.74780249       0.37666320 </v>
   <v>       0.50001652       0.74299741       0.89251277 </v>
   <v>       0.23832823       0.00602682       0.11250172 </v>
   <v>       0.24775052       0.00676858       0.61069701 </v>
   <v>       0.23832823       0.50602682       0.11250172 </v>
   <v>       0.24775052       0.50676858       0.61069701 </v>
   <v>       0.75338439       0.00154243       0.12067543 </v>
   <v>       0.74536936       0.00713621       0.60861909 </v>
   <v>       0.75338439       0.50154243       0.12067543 </v>
   <v>       0.74536936       0.50713621       0.60861909 </v>
   <v>       0.24293946       0.00238519       0.38524812 </v>
   <v>       0.25161610       0.01013919       0.88938456 </v>
   <v>       0.24293946       0.50238519       0.38524812 </v>
   <v>       0.25161610       0.51013919       0.88938456 </v>
   <v>       0.75072365      -0.00030071       0.37809880 </v>
   <v>       0.74274552       0.00860757       0.89136302 </v>
   <v>       0.75072365       0.49969929       0.37809880 </v>
   <v>       0.74274552       0.50860757       0.89136302 </v>
   <v>       0.24443229       0.25275983       0.00181332 </v>
   <v>       0.49494316       0.49911430       0.49510806 </v>
   <v>       0.99554575       0.99618087       0.49972173 </v>
   <v>       0.49494316      -0.00088570       0.49510806 </v>
   <v>       0.24443229       0.75275983       0.00181332 </v>
   <v>       0.75565346       0.74108495       0.25116894 </v>
   <v>       0.75565346       0.24108495       0.25116894 </v>
   <v>       0.99554575       0.49618087       0.49972173 </v>
   <v>       0.99267422       0.00002029       0.00059505 </v>
   <v>       0.99267422       0.50002029       0.00059505 </v>
   <v>       0.49476838       0.50186493       0.01279211 </v>
   <v>       0.74352585       0.25075323       0.00301508 </v>
   <v>       0.74580475       0.24899090       0.50073660 </v>
   <v>       0.49476838       0.00186493       0.01279211 </v>
   <v>       0.76303751       0.28668076       0.74850274 </v>
   <v>       0.24478073       0.74839835       0.48549966 </v>
   <v>       0.24478073       0.24839835       0.48549966 </v>
   <v>       0.74580475       0.74899090       0.50073660 </v>
   <v>       0.24568552       0.29277419       0.24676671 </v>
   <v>       0.27011269       0.28532833       0.75568514 </v>
   <v>       0.24568552       0.79277419       0.24676671 </v>
   <v>       0.76303751       0.78668076       0.74850274 </v>
   <v>       0.51967071       0.48437998       0.25081489 </v>
   <v>       0.74352585       0.75075323       0.00301508 </v>
   <v>       0.99081282       0.98141480       0.24844706 </v>
   <v>       0.01693475       0.96238170       0.74873204 </v>
   <v>       0.99081282       0.48141480       0.24844706 </v>
   <v>       0.01693475       0.46238170       0.74873204 </v>
   <v>       0.51967071       0.98437998       0.25081489 </v>
   <v>       0.51634612       0.96444501       0.74630345 </v>
   <v>       0.27011269       0.78532833       0.75568514 </v>
   <v>       0.51634612       0.46444501       0.74630345 </v>
   <v>       0.99404814       0.00117253       0.12341284 </v>
   <v>       0.99366326       0.01404768       0.63723988 </v>
   <v>       0.99404814       0.50117253       0.12341284 </v>
   <v>       0.99366326       0.51404768       0.63723988 </v>
   <v>       0.48177920       0.01335608       0.13371121 </v>
   <v>       0.48827632       0.01227641       0.63302861 </v>
   <v>       0.48177920       0.51335608       0.13371121 </v>
   <v>       0.48827632       0.51227641       0.63302861 </v>
   <v>       0.99499660       0.99253871       0.37895311 </v>
   <v>       0.98498288       0.02248365       0.85465497 </v>
   <v>       0.99499660       0.49253871       0.37895311 </v>
   <v>       0.98498288       0.52248365       0.85465497 </v>
   <v>       0.48866595       0.00537925       0.37257566 </v>
   <v>       0.48183701       0.02641605       0.85049510 </v>
   <v>       0.48866595       0.50537925       0.37257566 </v>
   <v>       0.48183701       0.52641605       0.85049510 </v>
   <v>       0.22931175       0.23759714       0.36313233 </v>
   <v>       0.24606517       0.23819532       0.86855652 </v>
   <v>       0.22931175       0.73759714       0.36313233 </v>
   <v>       0.24606517       0.73819532       0.86855652 </v>
   <v>       0.75206705       0.25284248       0.37599130 </v>
   <v>       0.73277032       0.23187633       0.85686662 </v>
   <v>       0.75206705       0.75284248       0.37599130 </v>
   <v>       0.73277032       0.73187633       0.85686662 </v>
   <v>       0.23033483       0.24733498       0.12814819 </v>
   <v>       0.23419521       0.21757672       0.65490879 </v>
   <v>       0.23033483       0.74733498       0.12814819 </v>
   <v>       0.23419521       0.71757672       0.65490879 </v>
   <v>       0.75139035       0.24796317       0.12707826 </v>
   <v>       0.73121940       0.22981937       0.64014020 </v>
   <v>       0.75139035       0.74796317       0.12707826 </v>
   <v>       0.73121940       0.72981937       0.64014020 </v>
   <v>       0.16054465       0.45625299       0.24974226 </v>
   <v>       0.41272767       0.35063586       0.25150843 </v>
   <v>       0.66132806       0.39282106       0.24985269 </v>
   <v>       0.91553774       0.33104039       0.24961003 </v>
   <v>       0.16054465       0.95625299       0.24974226 </v>
   <v>       0.41272767       0.85063586       0.25150843 </v>
   <v>       0.66132806       0.89282106       0.24985269 </v>
   <v>       0.91553774       0.83104039       0.24961003 </v>
   <v>       0.12364947       0.11969418       0.50027555 </v>
   <v>       0.37173504       0.12795604       0.49774296 </v>
   <v>       0.62198417       0.12019015       0.49766179 </v>
   <v>       0.87411105       0.12447746       0.50204676 </v>
   <v>       0.12094566       0.37019548       0.50660262 </v>
   <v>       0.36705426       0.37492078       0.50032826 </v>
   <v>       0.61673017       0.37375071       0.50267429 </v>
   <v>       0.87083746       0.37381606       0.51041032 </v>
   <v>       0.12364947       0.61969418       0.50027555 </v>
   <v>       0.37173504       0.62795604       0.49774296 </v>
   <v>       0.62198417       0.62019015       0.49766179 </v>
   <v>       0.87411105       0.62447746       0.50204676 </v>
   <v>       0.12094566       0.87019548       0.50660262 </v>
   <v>       0.36705426       0.87492078       0.50032826 </v>
   <v>       0.61673017       0.87375071       0.50267429 </v>
   <v>       0.87083746       0.87381606       0.51041032 </v>
   <v>       0.18905650       0.43591216       0.75158092 </v>
   <v>       0.44221246       0.31077900       0.74958067 </v>
   <v>       0.68878172       0.44114241       0.74888096 </v>
   <v>       0.93611969       0.31164010       0.74843166 </v>
   <v>       0.18905650       0.93591216       0.75158092 </v>
   <v>       0.44221246       0.81077900       0.74958067 </v>
   <v>       0.68878172       0.94114241       0.74888096 </v>
   <v>       0.93611969       0.81164010       0.74843166 </v>
   <v>       0.12151386       0.12446749       0.99707536 </v>
   <v>       0.37194647       0.13119808       0.00300055 </v>
   <v>       0.62196737       0.12255944       0.00335052 </v>
   <v>       0.86940151       0.12809974       0.99762150 </v>
   <v>       0.11803265       0.37509336       0.99176617 </v>
   <v>       0.36666657       0.38001009      -0.00086762 </v>
   <v>       0.61663151       0.37494097       0.00070228 </v>
   <v>       0.86686725       0.37476359       0.99240183 </v>
   <v>       0.12151386       0.62446749       0.99707536 </v>
   <v>       0.37194647       0.63119808       0.00300055 </v>
   <v>       0.62196737       0.62255944       0.00335052 </v>
   <v>       0.86940151       0.62809974       0.99762150 </v>
   <v>       0.11803265       0.87509336       0.99176617 </v>
   <v>       0.36666657       0.88001009      -0.00086762 </v>
   <v>       0.61663151       0.87494097       0.00070228 </v>
   <v>       0.86686725       0.87476359       0.99240183 </v>
   <v>       0.60761041       0.14093305       0.25316232 </v>
   <v>       0.86080639       0.09873683       0.25364051 </v>
   <v>       0.60761041       0.64093305       0.25316232 </v>
   <v>       0.86080639       0.59873683       0.25364051 </v>
  </varray>
 </structure>
</modeling>
