       N       E                     dE             d eps       ncg     rms          rms(c)
DAV:   1    -0.111907120822E+04   -0.11191E+04   -0.21863E-02 13456   0.345E-01    0.195E-02
RMM:   2    -0.111907120828E+04   -0.58950E-07   -0.16155E-05  6714   0.662E-03    0.336E-02
RMM:   3    -0.111907120874E+04   -0.45204E-06   -0.61870E-06  5652   0.453E-03    0.311E-03
RMM:   4    -0.111907120907E+04   -0.33328E-06   -0.34205E-06  3747   0.241E-03    0.277E-03
RMM:   5    -0.111907120920E+04   -0.13190E-06   -0.19113E-06  3589   0.266E-03    0.385E-03
RMM:   6    -0.111907120933E+04   -0.12809E-06   -0.10769E-06  2340   0.191E-03    0.110E-03
RMM:   7    -0.111907120937E+04   -0.45402E-07   -0.65708E-07  2216   0.203E-03    0.568E-04
RMM:   8    -0.111907120941E+04   -0.33644E-07   -0.32751E-07  1844   0.177E-03
   1 F= -.11190712E+04 E0= -.11190712E+04  d E =-.111907E+04  mag=    40.0000
       N       E                     dE             d eps       ncg     rms          rms(c)
DAV:   1    -0.111907141736E+04   -0.20798E-03   -0.35546E-01 12872   0.708E-01    0.235E-01
RMM:   2    -0.111907232855E+04   -0.91119E-03   -0.10668E-02 12296   0.137E-01    0.188E-01
RMM:   3    -0.111907231353E+04    0.15017E-04   -0.53848E-04 10738   0.433E-02    0.118E-01
RMM:   4    -0.111907225227E+04    0.61262E-04   -0.18615E-04  7630   0.173E-02    0.654E-02
RMM:   5    -0.111907224050E+04    0.11772E-04   -0.62767E-05  7197   0.112E-02    0.497E-02
RMM:   6    -0.111907224131E+04   -0.81908E-06   -0.19078E-05  7081   0.745E-03    0.160E-02
RMM:   7    -0.111907224134E+04   -0.26674E-07   -0.92751E-06  6467   0.418E-03    0.118E-02
RMM:   8    -0.111907224114E+04    0.20472E-06   -0.52714E-06  6103   0.402E-03
   2 F= -.11190722E+04 E0= -.11190722E+04  d E =-.103173E-02  mag=    40.0000
       N       E                     dE             d eps       ncg     rms          rms(c)
DAV:   1    -0.111907224058E+04    0.76377E-06   -0.70607E-05  8168   0.111E-02    0.108E-02
RMM:   2    -0.111907224125E+04   -0.67378E-06   -0.83248E-06  6249   0.543E-03    0.183E-02
RMM:   3    -0.111907224145E+04   -0.19975E-06   -0.21500E-06  3966   0.242E-03    0.328E-03
RMM:   4    -0.111907224146E+04   -0.65484E-08   -0.77804E-07  2927   0.233E-03    0.433E-03
RMM:   5    -0.111907224139E+04    0.63912E-07   -0.16945E-08  1665   0.176E-03    0.260E-03
RMM:   6    -0.111907224133E+04    0.65003E-07   -0.16046E-08  1557   0.178E-03    0.857E-04
RMM:   7    -0.111907224130E+04    0.27809E-07   -0.41790E-09  1352   0.178E-03    0.299E-04
RMM:   8    -0.111907224129E+04    0.71304E-08   -0.16597E-09  1196   0.178E-03
   3 F= -.11190722E+04 E0= -.11190722E+04  d E =-.103189E-02  mag=    40.0000
       N       E                     dE             d eps       ncg     rms          rms(c)
DAV:   1    -0.111907253913E+04   -0.29783E-03   -0.21862E-01 12656   0.557E-01    0.151E-01
RMM:   2    -0.111907309982E+04   -0.56069E-03   -0.57515E-03 12369   0.990E-02    0.103E-01
RMM:   3    -0.111907310572E+04   -0.58977E-05   -0.25870E-04  8211   0.335E-02    0.634E-02
RMM:   4    -0.111907309022E+04    0.15499E-04   -0.89381E-05  7062   0.130E-02    0.372E-02
RMM:   5    -0.111907309122E+04   -0.99586E-06   -0.30120E-05  6894   0.890E-03    0.347E-02
RMM:   6    -0.111907309288E+04   -0.16596E-05   -0.13344E-05  6640   0.518E-03    0.790E-03
RMM:   7    -0.111907309373E+04   -0.85142E-06   -0.61928E-06  5709   0.419E-03    0.844E-03
RMM:   8    -0.111907309432E+04   -0.59120E-06   -0.41537E-06  4544   0.289E-03
   4 F= -.11190731E+04 E0= -.11190731E+04  d E =-.853025E-03  mag=    40.0000
       N       E                     dE             d eps       ncg     rms          rms(c)
DAV:   1    -0.111907208077E+04    0.10130E-02   -0.60746E-01 12528   0.928E-01    0.252E-01
RMM:   2    -0.111907364047E+04   -0.15597E-02   -0.16029E-02 12364   0.166E-01    0.171E-01
RMM:   3    -0.111907367229E+04   -0.31820E-04   -0.86107E-04 11490   0.555E-02    0.106E-01
RMM:   4    -0.111907362298E+04    0.49309E-04   -0.21938E-04  7773   0.187E-02    0.574E-02
RMM:   5    -0.111907362140E+04    0.15782E-05   -0.68092E-05  7162   0.122E-02    0.486E-02
RMM:   6    -0.111907362384E+04   -0.24465E-05   -0.24581E-05  7045   0.822E-03    0.143E-02
RMM:   7    -0.111907362560E+04   -0.17512E-05   -0.13530E-05  6737   0.518E-03    0.119E-02
RMM:   8    -0.111907362665E+04   -0.10497E-05   -0.80215E-06  6379   0.467E-03
   5 F= -.11190736E+04 E0= -.11190736E+04  d E =-.138535E-02  mag=    40.0000
       N       E                     dE             d eps       ncg     rms          rms(c)
DAV:   1    -0.111907352014E+04    0.10546E-03   -0.35964E-01 12616   0.706E-01    0.170E-01
RMM:   2    -0.111907441427E+04   -0.89414E-03   -0.93643E-03 12391   0.124E-01    0.116E-01
RMM:   3    -0.111907442069E+04   -0.64201E-05   -0.45036E-04  9684   0.419E-02    0.720E-02
RMM:   4    -0.111907439542E+04    0.25274E-04   -0.12042E-04  7193   0.141E-02    0.395E-02
RMM:   5    -0.111907439461E+04    0.80628E-06   -0.42367E-05  7049   0.941E-03    0.311E-02
RMM:   6    -0.111907439651E+04   -0.18979E-05   -0.17526E-05  6865   0.654E-03    0.105E-02
RMM:   7    -0.111907439761E+04   -0.11041E-05   -0.98677E-06  6334   0.444E-03    0.820E-03
RMM:   8    -0.111907439825E+04   -0.63807E-06   -0.59097E-06  5470   0.387E-03
   6 F= -.11190744E+04 E0= -.11190744E+04  d E =-.771607E-03  mag=    40.0000
