<?xml version="1.0" encoding="ISO-8859-1"?>
<modeling>
 <generator>
  <i name="program" type="string">vasp </i>
  <i name="version" type="string">5.4.1  </i>
  <i name="subversion" type="string">05Feb16 (build Jan 25 2017 20:16:33) complex                          parallel </i>
  <i name="platform" type="string">BWXE6 </i>
  <i name="date" type="string">2019 07 18 </i>
  <i name="time" type="string">10:25:23 </i>
 </generator>
 <incar>
  <i type="string" name="SYSTEM"> STF</i>
  <i type="string" name="PREC">normal</i>
  <i type="string" name="ALGO"> Fast</i>
  <i type="int" name="ISPIN">     2</i>
  <i type="int" name="NELM">    40</i>
  <i type="int" name="NELMIN">     8</i>
  <i type="int" name="IBRION">     2</i>
  <i name="EDIFF">      0.00010000</i>
  <i name="EDIFFG">     -0.03000000</i>
  <i type="int" name="NSW">    30</i>
  <i type="int" name="ISIF">     3</i>
  <i name="ENCUT">    520.00000000</i>
  <i type="int" name="NBANDS">   768</i>
  <v name="MAGMOM">      0.60000000      0.60000000      0.60000000      0.60000000      0.60000000      0.60000000      0.60000000      0.60000000      0.60000000      0.60000000      0.60000000      0.60000000      0.60000000      0.60000000      0.60000000      0.60000000      0.60000000      0.60000000      0.60000000      0.60000000
      0.60000000      0.60000000      0.60000000      0.60000000      0.60000000      0.60000000      0.60000000      0.60000000      0.60000000      0.60000000      0.60000000      0.60000000      0.60000000      0.60000000      0.60000000      0.60000000      0.60000000      0.60000000      0.60000000      0.60000000
      0.60000000      0.60000000      0.60000000      0.60000000      0.60000000      0.60000000      0.60000000      0.60000000      5.00000000      5.00000000      5.00000000      5.00000000      5.00000000      5.00000000      5.00000000      5.00000000      5.00000000      5.00000000      5.00000000      5.00000000
      5.00000000      5.00000000      5.00000000      5.00000000      0.60000000      0.60000000      0.60000000      0.60000000      0.60000000      0.60000000      0.60000000      0.60000000      0.60000000      0.60000000      0.60000000      0.60000000      0.60000000      0.60000000      0.60000000      0.60000000
      0.60000000      0.60000000      0.60000000      0.60000000      0.60000000      0.60000000      0.60000000      0.60000000      0.60000000      0.60000000      0.60000000      0.60000000      0.60000000      0.60000000      0.60000000      0.60000000      0.60000000      0.60000000      0.60000000      0.60000000
      0.60000000      0.60000000      0.60000000      0.60000000      0.60000000      0.60000000      0.60000000      0.60000000      0.60000000      0.60000000      0.60000000      0.60000000      0.60000000      0.60000000      0.60000000      0.60000000      0.60000000      0.60000000      0.60000000      0.60000000
      0.60000000      0.60000000      0.60000000      0.60000000      0.60000000      0.60000000      0.60000000      0.60000000      0.60000000      0.60000000      0.60000000      0.60000000      0.60000000      0.60000000      0.60000000      0.60000000      0.60000000      0.60000000      0.60000000      0.60000000
      0.60000000      0.60000000      0.60000000      0.60000000      0.60000000      0.60000000      0.60000000      0.60000000      0.60000000      0.60000000      0.60000000      0.60000000</v>
  <i type="string" name="LREAL"> Auto</i>
  <i type="int" name="ISMEAR">     0</i>
  <i name="SIGMA">      0.05000000</i>
  <i type="int" name="LMAXMIX">     4</i>
  <v type="int" name="KPOINT_BSE">    -1     0     0     0</v>
  <i type="int" name="NELM">    40</i>
  <i type="logical" name="LDAU"> T  </i>
  <v type="int" name="LDAUTYPE">     2</v>
  <v type="int" name="LDAUL">     0     2     2     0</v>
  <v name="LDAUU">      0.00000000      3.00000000      5.00000000      0.00000000</v>
  <v name="LDAUJ">      0.00000000      0.00000000      0.00000000      0.00000000</v>
  <i type="int" name="LDAUPRINT">     1</i>
 </incar>
 <kpoints>
  <generation param="Monkhorst-Pack">
   <v type="int" name="divisions">       2        2        2 </v>
   <v name="usershift">      0.00000000       0.00000000       0.00000000 </v>
   <v name="genvec1">      0.50000000      -0.00000000      -0.00000000 </v>
   <v name="genvec2">      0.00000000       0.50000000       0.00000000 </v>
   <v name="genvec3">      0.00000000       0.00000000       0.50000000 </v>
   <v name="shift">      0.50000000       0.50000000       0.50000000 </v>
  </generation>
  <varray name="kpointlist" >
   <v>       0.25000000       0.25000000       0.25000000 </v>
   <v>      -0.25000000       0.25000000       0.25000000 </v>
   <v>       0.25000000      -0.25000000       0.25000000 </v>
   <v>      -0.25000000      -0.25000000       0.25000000 </v>
  </varray>
  <varray name="weights" >
   <v>       0.25000000 </v>
   <v>       0.25000000 </v>
   <v>       0.25000000 </v>
   <v>       0.25000000 </v>
  </varray>
 </kpoints>
 <parameters>
  <separator name="general" >
   <i type="string" name="SYSTEM">STF</i>
   <i type="logical" name="LCOMPAT"> F  </i>
  </separator>
  <separator name="electronic" >
   <i type="string" name="PREC">normal</i>
   <i name="ENMAX">    520.00000000</i>
   <i name="ENAUG">    605.39200000</i>
   <i name="EDIFF">      0.00010000</i>
   <i type="int" name="IALGO">    68</i>
   <i type="int" name="IWAVPR">    11</i>
   <i type="int" name="NBANDS">   768</i>
   <i name="NELECT">   1040.00000000</i>
   <i type="int" name="TURBO">     0</i>
   <i type="int" name="IRESTART">     0</i>
   <i type="int" name="NREBOOT">     0</i>
   <i type="int" name="NMIN">     0</i>
   <i name="EREF">      0.00000000</i>
   <separator name="electronic smearing" >
    <i type="int" name="ISMEAR">     0</i>
    <i name="SIGMA">      0.05000000</i>
    <i name="KSPACING">      0.50000000</i>
    <i type="logical" name="KGAMMA"> T  </i>
   </separator>
   <separator name="electronic projectors" >
    <i type="logical" name="LREAL"> T  </i>
    <v name="ROPT">     -0.00050000     -0.00050000     -0.00050000     -0.00050000</v>
    <i type="int" name="LMAXPAW">  -100</i>
    <i type="int" name="LMAXMIX">     4</i>
    <i type="logical" name="NLSPLINE"> F  </i>
   </separator>
   <separator name="electronic startup" >
    <i type="int" name="ISTART">     1</i>
    <i type="int" name="ICHARG">     0</i>
    <i type="int" name="INIWAV">     1</i>
   </separator>
   <separator name="electronic spin" >
    <i type="int" name="ISPIN">     2</i>
    <i type="logical" name="LNONCOLLINEAR"> F  </i>
    <v name="MAGMOM">      0.60000000      0.60000000      0.60000000      0.60000000      0.60000000      0.60000000      0.60000000      0.60000000      0.60000000      0.60000000      0.60000000      0.60000000      0.60000000      0.60000000      0.60000000      0.60000000      0.60000000      0.60000000      0.60000000      0.60000000
      0.60000000      0.60000000      0.60000000      0.60000000      0.60000000      0.60000000      0.60000000      0.60000000      0.60000000      0.60000000      0.60000000      0.60000000      0.60000000      0.60000000      0.60000000      0.60000000      0.60000000      0.60000000      0.60000000      0.60000000
      0.60000000      0.60000000      0.60000000      0.60000000      0.60000000      0.60000000      0.60000000      0.60000000      5.00000000      5.00000000      5.00000000      5.00000000      5.00000000      5.00000000      5.00000000      5.00000000      5.00000000      5.00000000      5.00000000      5.00000000
      5.00000000      5.00000000      5.00000000      5.00000000      0.60000000      0.60000000      0.60000000      0.60000000      0.60000000      0.60000000      0.60000000      0.60000000      0.60000000      0.60000000      0.60000000      0.60000000      0.60000000      0.60000000      0.60000000      0.60000000
      0.60000000      0.60000000      0.60000000      0.60000000      0.60000000      0.60000000      0.60000000      0.60000000      0.60000000      0.60000000      0.60000000      0.60000000      0.60000000      0.60000000      0.60000000      0.60000000      0.60000000      0.60000000      0.60000000      0.60000000
      0.60000000      0.60000000      0.60000000      0.60000000      0.60000000      0.60000000      0.60000000      0.60000000      0.60000000      0.60000000      0.60000000      0.60000000      0.60000000      0.60000000      0.60000000      0.60000000      0.60000000      0.60000000      0.60000000      0.60000000
      0.60000000      0.60000000      0.60000000      0.60000000      0.60000000      0.60000000      0.60000000      0.60000000      0.60000000      0.60000000      0.60000000      0.60000000      0.60000000      0.60000000      0.60000000      0.60000000      0.60000000      0.60000000      0.60000000      0.60000000
      0.60000000      0.60000000      0.60000000      0.60000000      0.60000000      0.60000000      0.60000000      0.60000000      0.60000000      0.60000000      0.60000000      0.60000000</v>
    <i name="NUPDOWN">     -1.00000000</i>
    <i type="logical" name="LSORBIT"> F  </i>
    <v name="SAXIS">      0.00000000      0.00000000      1.00000000</v>
    <i type="logical" name="LSPIRAL"> F  </i>
    <v name="QSPIRAL">      0.00000000      0.00000000      0.00000000</v>
    <i type="logical" name="LZEROZ"> F  </i>
   </separator>
   <separator name="electronic exchange-correlation" >
    <i type="logical" name="LASPH"> F  </i>
    <i type="logical" name="LMETAGGA"> F  </i>
   </separator>
   <separator name="electronic convergence" >
    <i type="int" name="NELM">    40</i>
    <i type="int" name="NELMDL">     0</i>
    <i type="int" name="NELMIN">     8</i>
    <i name="ENINI">    520.00000000</i>
    <separator name="electronic convergence detail" >
     <i type="logical" name="LDIAG"> T  </i>
     <i type="logical" name="LSUBROT"> F  </i>
     <i name="WEIMIN">      0.00100000</i>
     <i name="EBREAK">      0.00000003</i>
     <i name="DEPER">      0.30000000</i>
     <i type="int" name="NRMM">     4</i>
     <i name="TIME">      0.40000000</i>
    </separator>
   </separator>
   <separator name="electronic mixer" >
    <i name="AMIX">      0.40000000</i>
    <i name="BMIX">      1.00000000</i>
    <i name="AMIN">      0.10000000</i>
    <i name="AMIX_MAG">      1.60000000</i>
    <i name="BMIX_MAG">      1.00000000</i>
    <separator name="electronic mixer details" >
     <i type="int" name="IMIX">     4</i>
     <i type="logical" name="MIXFIRST"> F  </i>
     <i type="int" name="MAXMIX">   -45</i>
     <i name="WC">    100.00000000</i>
     <i type="int" name="INIMIX">     1</i>
     <i type="int" name="MIXPRE">     1</i>
     <i type="int" name="MREMOVE">     5</i>
    </separator>
   </separator>
   <separator name="electronic dipolcorrection" >
    <i type="logical" name="LDIPOL"> F  </i>
    <i type="logical" name="LMONO"> F  </i>
    <i type="int" name="IDIPOL">     0</i>
    <i name="EPSILON">      1.00000000</i>
    <v name="DIPOL">   -100.00000000   -100.00000000   -100.00000000</v>
    <i name="EFIELD">      0.00000000</i>
   </separator>
  </separator>
  <separator name="grids" >
   <i type="int" name="NGX">    64</i>
   <i type="int" name="NGY">    64</i>
   <i type="int" name="NGZ">    90</i>
   <i type="int" name="NGXF">   128</i>
   <i type="int" name="NGYF">   128</i>
   <i type="int" name="NGZF">   180</i>
   <i type="logical" name="ADDGRID"> F  </i>
  </separator>
  <separator name="ionic" >
   <i type="int" name="NSW">    30</i>
   <i type="int" name="IBRION">     2</i>
   <i type="int" name="ISIF">     3</i>
   <i name="PSTRESS">      0.00000000</i>
   <i name="EDIFFG">     -0.03000000</i>
   <i type="int" name="NFREE">     1</i>
   <i name="POTIM">      0.50000000</i>
   <i name="SMASS">     -3.00000000</i>
   <i name="SCALEE">      1.00000000</i>
  </separator>
  <separator name="ionic md" >
   <i name="TEBEG">      0.00010000</i>
   <i name="TEEND">      0.00010000</i>
   <i type="int" name="NBLOCK">     1</i>
   <i type="int" name="KBLOCK">    30</i>
   <i type="int" name="NPACO">   256</i>
   <i name="APACO">     16.00000000</i>
  </separator>
  <separator name="symmetry" >
   <i type="int" name="ISYM">     2</i>
   <i name="SYMPREC">      0.00001000</i>
  </separator>
  <separator name="dos" >
   <i type="logical" name="LORBIT"> F  </i>
   <v name="RWIGS">     -1.00000000     -1.00000000     -1.00000000     -1.00000000</v>
   <i type="int" name="NEDOS">   301</i>
   <i name="EMIN">     10.00000000</i>
   <i name="EMAX">    -10.00000000</i>
   <i name="EFERMI">      0.00000000</i>
  </separator>
  <separator name="writing" >
   <i type="int" name="NWRITE">     2</i>
   <i type="logical" name="LWAVE"> T  </i>
   <i type="logical" name="LCHARG"> T  </i>
   <i type="logical" name="LPARD"> F  </i>
   <i type="logical" name="LVTOT"> F  </i>
   <i type="logical" name="LVHAR"> F  </i>
   <i type="logical" name="LELF"> F  </i>
   <i type="logical" name="LOPTICS"> F  </i>
   <v name="STM">      0.00000000      0.00000000      0.00000000      0.00000000      0.00000000      0.00000000      0.00000000</v>
  </separator>
  <separator name="performance" >
   <i type="int" name="NPAR">     2</i>
   <i type="int" name="NSIM">     4</i>
   <i type="int" name="NBLK">    -1</i>
   <i type="logical" name="LPLANE"> T  </i>
   <i type="logical" name="LSCALAPACK"> T  </i>
   <i type="logical" name="LSCAAWARE"> F  </i>
   <i type="logical" name="LSCALU"> F  </i>
   <i type="logical" name="LASYNC"> F  </i>
   <i type="logical" name="LORBITALREAL"> F  </i>
  </separator>
  <separator name="miscellaneous" >
   <i type="int" name="IDIOT">     3</i>
   <i type="logical" name="LMUSIC"> F  </i>
   <v name="POMASS">     87.62000000     47.88000000     55.84700000     16.00000000</v>
   <v name="DARWINR">      0.00000000      0.00000000      0.00000000      0.00000000</v>
   <v name="DARWINV">      1.00000000      1.00000000      1.00000000      1.00000000</v>
   <i type="logical" name="LCORR"> T  </i>
  </separator>
  <i type="logical" name="GGA_COMPAT"> T  </i>
  <i type="logical" name="LBERRY"> F  </i>
  <i type="int" name="ICORELEVEL">     0</i>
  <i type="logical" name="LDAU"> T  </i>
  <v type="int" name="LDAUTYPE">     2</v>
  <v type="int" name="LDAUL">     0</v>
  <v name="LDAUU">      0.00000000</v>
  <v name="LDAUJ">      0.00000000</v>
  <i type="int" name="LDAUPRINT">     1</i>
  <i type="int" name="I_CONSTRAINED_M">     0</i>
  <separator name="electronic exchange-correlation" >
   <i type="string" name="GGA">--</i>
   <i type="int" name="VOSKOWN">     0</i>
   <i type="logical" name="LHFCALC"> F  </i>
   <i type="string" name="PRECFOCK"></i>
   <i type="logical" name="LSYMGRAD"> F  </i>
   <i type="logical" name="LHFONE"> F  </i>
   <i type="logical" name="LRHFCALC"> F  </i>
   <i type="logical" name="LTHOMAS"> F  </i>
   <i type="logical" name="LMODELHF"> F  </i>
   <i name="ENCUT4O">     -1.00000000</i>
   <i type="int" name="EXXOEP">     0</i>
   <i type="int" name="FOURORBIT">     0</i>
   <i name="AEXX">      0.00000000</i>
   <i name="HFALPHA">      0.00000000</i>
   <i name="MCALPHA">      0.00000000</i>
   <i name="ALDAX">      1.00000000</i>
   <i name="AGGAX">      1.00000000</i>
   <i name="ALDAC">      1.00000000</i>
   <i name="AGGAC">      1.00000000</i>
   <i type="int" name="NKREDX">     1</i>
   <i type="int" name="NKREDY">     1</i>
   <i type="int" name="NKREDZ">     1</i>
   <i type="logical" name="SHIFTRED"> F  </i>
   <i type="logical" name="ODDONLY"> F  </i>
   <i type="logical" name="EVENONLY"> F  </i>
   <i type="int" name="LMAXFOCK">     0</i>
   <i type="int" name="NMAXFOCKAE">     0</i>
   <i type="logical" name="LFOCKAEDFT"> F  </i>
   <i name="HFSCREEN">      0.00000000</i>
   <i name="HFSCREENC">      0.00000000</i>
   <i type="int" name="NBANDSGWLOW">     0</i>
  </separator>
  <separator name="vdW DFT" >
   <i type="logical" name="LUSE_VDW"> F  </i>
   <i name="Zab_VDW">     -0.84910000</i>
   <i name="PARAM1">      0.12340000</i>
   <i name="PARAM2">      1.00000000</i>
   <i name="PARAM3">      0.00000000</i>
  </separator>
  <separator name="model GW" >
   <i type="int" name="MODEL_GW">     0</i>
   <i name="MODEL_EPS0">      7.90062349</i>
   <i name="MODEL_ALPHA">      1.00000000</i>
  </separator>
  <separator name="linear response parameters" >
   <i type="logical" name="LEPSILON"> F  </i>
   <i type="logical" name="LRPA"> F  </i>
   <i type="logical" name="LNABLA"> F  </i>
   <i type="logical" name="LVEL"> F  </i>
   <i type="int" name="KINTER">     0</i>
   <i name="CSHIFT">      0.10000000</i>
   <i name="OMEGAMAX">     -1.00000000</i>
   <i name="DEG_THRESHOLD">      0.00200000</i>
  </separator>
  <separator name="orbital magnetization" >
   <i type="logical" name="NUCIND"> F  </i>
   <v name="MAGPOS">      0.00000000      0.00000000      0.00000000</v>
   <i type="logical" name="LNICSALL"> T  </i>
   <i type="logical" name="ORBITALMAG"> F  </i>
   <i type="logical" name="LMAGBLOCH"> F  </i>
   <i type="logical" name="LCHIMAG"> F  </i>
   <i type="logical" name="LGAUGE"> T  </i>
   <i type="int" name="MAGATOM">     0</i>
   <v name="MAGDIPOL">      0.00000000      0.00000000      0.00000000</v>
   <v name="AVECCONST">      0.00000000      0.00000000      0.00000000</v>
  </separator>
  <separator name="response functions" >
   <i type="logical" name="LADDER"> F  </i>
   <i type="logical" name="LFXC"> F  </i>
   <i type="logical" name="LHARTREE"> T  </i>
   <i type="int" name="IBSE">     0</i>
   <v type="int" name="KPOINT">    -1     0     0     0</v>
   <i type="logical" name="LTCTE"> F  </i>
   <i type="logical" name="LTETE"> F  </i>
   <i type="logical" name="LTRIPLET"> F  </i>
   <i type="logical" name="LFXCEPS"> F  </i>
   <i type="logical" name="LFXHEG"> F  </i>
   <i type="int" name="NATURALO">     0</i>
   <i type="logical" name="L2ORDER"> F  </i>
   <i type="logical" name="LUSEW"> F  </i>
   <i name="ENCUTGW">     -2.00000000</i>
   <i name="ENCUTGWSOFT">     -2.00000000</i>
   <i name="ENCUTLF">     -1.00000000</i>
   <i type="int" name="LMAXMP2">    -1</i>
   <i name="SCISSOR">      0.00000000</i>
   <i type="int" name="NOMEGA">     0</i>
   <i type="int" name="NOMEGAR">     0</i>
   <i type="int" name="NBANDSGW">    -1</i>
   <i type="int" name="NBANDSO">    -1</i>
   <i type="int" name="NBANDSV">    -1</i>
   <i type="int" name="NELM">    40</i>
   <i type="int" name="NELMHF">     1</i>
   <i type="int" name="DIM">     3</i>
   <i type="int" name="ANTIRES">     0</i>
   <i name="OMEGAMAX">    -30.00000000</i>
   <i name="OMEGAMIN">    -30.00000000</i>
   <i name="OMEGATL">   -200.00000000</i>
   <i type="int" name="OMEGAGRID">     0</i>
   <i name="CSHIFT">     -0.10000000</i>
   <i type="logical" name="SELFENERGY"> F  </i>
   <i type="logical" name="LSPECTRAL"> F  </i>
   <i type="logical" name="LSPECTRALGW"> F  </i>
   <i type="logical" name="LSINGLES"> F  </i>
   <i type="logical" name="LFERMIGW"> F  </i>
   <i type="logical" name="ODDONLYGW"> F  </i>
   <i type="logical" name="EVENONLYGW"> F  </i>
   <i type="int" name="NKREDLFX">     1</i>
   <i type="int" name="NKREDLFY">     1</i>
   <i type="int" name="NKREDLFZ">     1</i>
   <i type="int" name="MAXMEM">  1800</i>
   <i type="int" name="TELESCOPE">     0</i>
   <i type="int" name="TAUPAR">     1</i>
   <i type="int" name="OMEGAPAR">    -1</i>
   <i name="LAMBDA">      1.00000000</i>
  </separator>
  <separator name="External order field" >
   <i name="OFIELD_KAPPA">      0.00000000</i>
   <v name="OFIELD_K">      0.00000000      0.00000000      0.00000000</v>
   <i name="OFIELD_Q6_NEAR">      0.00000000</i>
   <i name="OFIELD_Q6_FAR">      0.00000000</i>
   <i name="OFIELD_A">      0.00000000</i>
  </separator>
 </parameters>
 <atominfo>
  <atoms>     152 </atoms>
  <types>       4 </types>
  <array name="atoms" >
   <dimension dim="1">ion</dimension>
   <field type="string">element</field>
   <field type="int">atomtype</field>
   <set>
    <rc><c>Sr</c><c>   1</c></rc>
    <rc><c>Sr</c><c>   1</c></rc>
    <rc><c>Sr</c><c>   1</c></rc>
    <rc><c>Sr</c><c>   1</c></rc>
    <rc><c>Sr</c><c>   1</c></rc>
    <rc><c>Sr</c><c>   1</c></rc>
    <rc><c>Sr</c><c>   1</c></rc>
    <rc><c>Sr</c><c>   1</c></rc>
    <rc><c>Sr</c><c>   1</c></rc>
    <rc><c>Sr</c><c>   1</c></rc>
    <rc><c>Sr</c><c>   1</c></rc>
    <rc><c>Sr</c><c>   1</c></rc>
    <rc><c>Sr</c><c>   1</c></rc>
    <rc><c>Sr</c><c>   1</c></rc>
    <rc><c>Sr</c><c>   1</c></rc>
    <rc><c>Sr</c><c>   1</c></rc>
    <rc><c>Sr</c><c>   1</c></rc>
    <rc><c>Sr</c><c>   1</c></rc>
    <rc><c>Sr</c><c>   1</c></rc>
    <rc><c>Sr</c><c>   1</c></rc>
    <rc><c>Sr</c><c>   1</c></rc>
    <rc><c>Sr</c><c>   1</c></rc>
    <rc><c>Sr</c><c>   1</c></rc>
    <rc><c>Sr</c><c>   1</c></rc>
    <rc><c>Sr</c><c>   1</c></rc>
    <rc><c>Sr</c><c>   1</c></rc>
    <rc><c>Sr</c><c>   1</c></rc>
    <rc><c>Sr</c><c>   1</c></rc>
    <rc><c>Sr</c><c>   1</c></rc>
    <rc><c>Sr</c><c>   1</c></rc>
    <rc><c>Sr</c><c>   1</c></rc>
    <rc><c>Sr</c><c>   1</c></rc>
    <rc><c>Ti</c><c>   2</c></rc>
    <rc><c>Ti</c><c>   2</c></rc>
    <rc><c>Ti</c><c>   2</c></rc>
    <rc><c>Ti</c><c>   2</c></rc>
    <rc><c>Ti</c><c>   2</c></rc>
    <rc><c>Ti</c><c>   2</c></rc>
    <rc><c>Ti</c><c>   2</c></rc>
    <rc><c>Ti</c><c>   2</c></rc>
    <rc><c>Ti</c><c>   2</c></rc>
    <rc><c>Ti</c><c>   2</c></rc>
    <rc><c>Ti</c><c>   2</c></rc>
    <rc><c>Ti</c><c>   2</c></rc>
    <rc><c>Ti</c><c>   2</c></rc>
    <rc><c>Ti</c><c>   2</c></rc>
    <rc><c>Ti</c><c>   2</c></rc>
    <rc><c>Ti</c><c>   2</c></rc>
    <rc><c>Fe</c><c>   3</c></rc>
    <rc><c>Fe</c><c>   3</c></rc>
    <rc><c>Fe</c><c>   3</c></rc>
    <rc><c>Fe</c><c>   3</c></rc>
    <rc><c>Fe</c><c>   3</c></rc>
    <rc><c>Fe</c><c>   3</c></rc>
    <rc><c>Fe</c><c>   3</c></rc>
    <rc><c>Fe</c><c>   3</c></rc>
    <rc><c>Fe</c><c>   3</c></rc>
    <rc><c>Fe</c><c>   3</c></rc>
    <rc><c>Fe</c><c>   3</c></rc>
    <rc><c>Fe</c><c>   3</c></rc>
    <rc><c>Fe</c><c>   3</c></rc>
    <rc><c>Fe</c><c>   3</c></rc>
    <rc><c>Fe</c><c>   3</c></rc>
    <rc><c>Fe</c><c>   3</c></rc>
    <rc><c>O </c><c>   4</c></rc>
    <rc><c>O </c><c>   4</c></rc>
    <rc><c>O </c><c>   4</c></rc>
    <rc><c>O </c><c>   4</c></rc>
    <rc><c>O </c><c>   4</c></rc>
    <rc><c>O </c><c>   4</c></rc>
    <rc><c>O </c><c>   4</c></rc>
    <rc><c>O </c><c>   4</c></rc>
    <rc><c>O </c><c>   4</c></rc>
    <rc><c>O </c><c>   4</c></rc>
    <rc><c>O </c><c>   4</c></rc>
    <rc><c>O </c><c>   4</c></rc>
    <rc><c>O </c><c>   4</c></rc>
    <rc><c>O </c><c>   4</c></rc>
    <rc><c>O </c><c>   4</c></rc>
    <rc><c>O </c><c>   4</c></rc>
    <rc><c>O </c><c>   4</c></rc>
    <rc><c>O </c><c>   4</c></rc>
    <rc><c>O </c><c>   4</c></rc>
    <rc><c>O </c><c>   4</c></rc>
    <rc><c>O </c><c>   4</c></rc>
    <rc><c>O </c><c>   4</c></rc>
    <rc><c>O </c><c>   4</c></rc>
    <rc><c>O </c><c>   4</c></rc>
    <rc><c>O </c><c>   4</c></rc>
    <rc><c>O </c><c>   4</c></rc>
    <rc><c>O </c><c>   4</c></rc>
    <rc><c>O </c><c>   4</c></rc>
    <rc><c>O </c><c>   4</c></rc>
    <rc><c>O </c><c>   4</c></rc>
    <rc><c>O </c><c>   4</c></rc>
    <rc><c>O </c><c>   4</c></rc>
    <rc><c>O </c><c>   4</c></rc>
    <rc><c>O </c><c>   4</c></rc>
    <rc><c>O </c><c>   4</c></rc>
    <rc><c>O </c><c>   4</c></rc>
    <rc><c>O </c><c>   4</c></rc>
    <rc><c>O </c><c>   4</c></rc>
    <rc><c>O </c><c>   4</c></rc>
    <rc><c>O </c><c>   4</c></rc>
    <rc><c>O </c><c>   4</c></rc>
    <rc><c>O </c><c>   4</c></rc>
    <rc><c>O </c><c>   4</c></rc>
    <rc><c>O </c><c>   4</c></rc>
    <rc><c>O </c><c>   4</c></rc>
    <rc><c>O </c><c>   4</c></rc>
    <rc><c>O </c><c>   4</c></rc>
    <rc><c>O </c><c>   4</c></rc>
    <rc><c>O </c><c>   4</c></rc>
    <rc><c>O </c><c>   4</c></rc>
    <rc><c>O </c><c>   4</c></rc>
    <rc><c>O </c><c>   4</c></rc>
    <rc><c>O </c><c>   4</c></rc>
    <rc><c>O </c><c>   4</c></rc>
    <rc><c>O </c><c>   4</c></rc>
    <rc><c>O </c><c>   4</c></rc>
    <rc><c>O </c><c>   4</c></rc>
    <rc><c>O </c><c>   4</c></rc>
    <rc><c>O </c><c>   4</c></rc>
    <rc><c>O </c><c>   4</c></rc>
    <rc><c>O </c><c>   4</c></rc>
    <rc><c>O </c><c>   4</c></rc>
    <rc><c>O </c><c>   4</c></rc>
    <rc><c>O </c><c>   4</c></rc>
    <rc><c>O </c><c>   4</c></rc>
    <rc><c>O </c><c>   4</c></rc>
    <rc><c>O </c><c>   4</c></rc>
    <rc><c>O </c><c>   4</c></rc>
    <rc><c>O </c><c>   4</c></rc>
    <rc><c>O </c><c>   4</c></rc>
    <rc><c>O </c><c>   4</c></rc>
    <rc><c>O </c><c>   4</c></rc>
    <rc><c>O </c><c>   4</c></rc>
    <rc><c>O </c><c>   4</c></rc>
    <rc><c>O </c><c>   4</c></rc>
    <rc><c>O </c><c>   4</c></rc>
    <rc><c>O </c><c>   4</c></rc>
    <rc><c>O </c><c>   4</c></rc>
    <rc><c>O </c><c>   4</c></rc>
    <rc><c>O </c><c>   4</c></rc>
    <rc><c>O </c><c>   4</c></rc>
    <rc><c>O </c><c>   4</c></rc>
    <rc><c>O </c><c>   4</c></rc>
    <rc><c>O </c><c>   4</c></rc>
    <rc><c>O </c><c>   4</c></rc>
    <rc><c>O </c><c>   4</c></rc>
    <rc><c>O </c><c>   4</c></rc>
    <rc><c>O </c><c>   4</c></rc>
   </set>
  </array>
  <array name="atomtypes" >
   <dimension dim="1">type</dimension>
   <field type="int">atomspertype</field>
   <field type="string">element</field>
   <field>mass</field>
   <field>valence</field>
   <field type="string">pseudopotential</field>
   <set>
    <rc><c>  32</c><c>Sr</c><c>     87.62000000</c><c>     10.00000000</c><c>  PAW_PBE Sr_sv 07Sep2000               </c></rc>
    <rc><c>  16</c><c>Ti</c><c>     47.88000000</c><c>      4.00000000</c><c>  PAW_PBE Ti 08Apr2002                  </c></rc>
    <rc><c>  16</c><c>Fe</c><c>     55.84700000</c><c>      8.00000000</c><c>  PAW_PBE Fe 06Sep2000                  </c></rc>
    <rc><c>  88</c><c>O </c><c>     16.00000000</c><c>      6.00000000</c><c>  PAW_PBE O 08Apr2002                   </c></rc>
   </set>
  </array>
 </atominfo>
 <structure name="initialpos" >
  <crystal>
   <varray name="basis" >
    <v>      11.18307230      -0.06518533      -0.00498228 </v>
    <v>      -0.06521182      11.18429001      -0.00127296 </v>
    <v>      -0.00721572      -0.00194210      16.00291155 </v>
   </varray>
   <i name="volume">   2001.49128413 </i>
   <varray name="rec_basis" >
    <v>       0.08942392       0.00052141       0.00004038 </v>
    <v>       0.00052119       0.08941417       0.00001109 </v>
    <v>       0.00002788       0.00000727       0.06248864 </v>
   </varray>
  </crystal>
  <varray name="positions" >
   <v>       0.00405732       0.24922603       0.12627645 </v>
   <v>       0.00030064       0.26144283       0.62813298 </v>
   <v>       0.00710744       0.75116937       0.12186122 </v>
   <v>       0.99614368       0.73934949       0.63474764 </v>
   <v>       0.49550769       0.24524663       0.13398304 </v>
   <v>       0.49908356       0.24242060       0.62515547 </v>
   <v>       0.48787425       0.75652644       0.12847512 </v>
   <v>       0.50476430       0.75553233       0.63343925 </v>
   <v>       0.99744594       0.25569409       0.36912590 </v>
   <v>       0.00235977       0.24821842       0.86343665 </v>
   <v>       0.99157834       0.74430339       0.36725667 </v>
   <v>       0.00358603       0.74731414       0.87735012 </v>
   <v>       0.50000571       0.24786836       0.37659234 </v>
   <v>       0.49823154       0.24016151       0.86563009 </v>
   <v>       0.50621870       0.75552187       0.37180611 </v>
   <v>       0.49806897       0.76149338       0.87399671 </v>
   <v>       0.25094689       0.99427097       0.12267769 </v>
   <v>       0.26327839       0.00024994       0.62985002 </v>
   <v>       0.24259813       0.51219279       0.13087100 </v>
   <v>       0.25085243       0.49401691       0.63565887 </v>
   <v>       0.74800853       0.99636660       0.12561453 </v>
   <v>       0.73939005       0.00018229       0.62668993 </v>
   <v>       0.75734073       0.50710923       0.13071638 </v>
   <v>       0.75177532       0.50009749       0.62709536 </v>
   <v>       0.25556093       0.00922143       0.36919918 </v>
   <v>       0.25151003       0.99669106       0.87476158 </v>
   <v>       0.24904380       0.49496315       0.37235344 </v>
   <v>       0.24484546       0.50095205       0.87547912 </v>
   <v>       0.73931355       0.00489915       0.36881853 </v>
   <v>       0.75099815       0.99747861       0.86405096 </v>
   <v>       0.75318886       0.49820157       0.37557809 </v>
   <v>       0.76160875       0.50248218       0.86880421 </v>
   <v>       0.49853707       0.99995750       0.25010146 </v>
   <v>       0.25003506       0.74898564       0.75341053 </v>
   <v>       0.25009303       0.24700711       0.50261589 </v>
   <v>       0.00027447       0.50256456       0.49954086 </v>
   <v>       0.00006305       0.49959262       0.24928334 </v>
   <v>       0.49998587       0.50072678       0.24820967 </v>
   <v>       0.75117903       0.75041332       0.50332058 </v>
   <v>       0.50198549       0.49844435       0.49602963 </v>
   <v>       0.24922278       0.24786880       0.74868854 </v>
   <v>       0.49842040       0.00391623       0.00436115 </v>
   <v>       0.74577660       0.25151257       0.50318812 </v>
   <v>       0.00370126       0.99592715       0.00424428 </v>
   <v>       0.99871641       0.99896300       0.24664062 </v>
   <v>       0.74907495       0.25083709       0.74774219 </v>
   <v>       0.00065676       0.50102479       0.00379986 </v>
   <v>       0.75020254       0.74975694       0.74991473 </v>
   <v>       0.49846853       0.99956757       0.49889301 </v>
   <v>       0.25102547       0.24839648       0.98724224 </v>
   <v>       0.00152781       0.49940737       0.75120510 </v>
   <v>       0.24838930       0.75311386       0.99525391 </v>
   <v>       0.00097622       0.99826923       0.75801496 </v>
   <v>       0.24850064       0.75132675       0.24291717 </v>
   <v>       0.50025499       0.99965887       0.74828455 </v>
   <v>       0.75085927       0.74931789       0.98848669 </v>
   <v>       0.98461269       0.01753985       0.48938110 </v>
   <v>       0.74981236       0.25136982       0.25816020 </v>
   <v>       0.48617056       0.51696102       0.00782246 </v>
   <v>       0.75014694       0.75245571       0.26105319 </v>
   <v>       0.24775227       0.24959865       0.26146798 </v>
   <v>       0.26703812       0.73248972       0.50948602 </v>
   <v>       0.76720856       0.23468726       0.99115805 </v>
   <v>       0.50034217       0.50078813       0.74053962 </v>
   <v>       0.12122215       0.13000099       0.24298748 </v>
   <v>       0.11592839       0.12717745       0.73501061 </v>
   <v>       0.12532320       0.62767296       0.26195614 </v>
   <v>       0.12042391       0.62825052       0.75818804 </v>
   <v>       0.62196526       0.13121403       0.24388387 </v>
   <v>       0.62067514       0.13031618       0.74585354 </v>
   <v>       0.62391772       0.63331903       0.23681605 </v>
   <v>       0.61857598       0.62881385       0.76400045 </v>
   <v>       0.36308407       0.38549134       0.49496831 </v>
   <v>       0.37964860       0.37131486       0.75571484 </v>
   <v>       0.37585016       0.86965273       0.26084043 </v>
   <v>       0.38019630       0.86983371       0.75441599 </v>
   <v>       0.87814502       0.36847615       0.23819584 </v>
   <v>       0.87833203       0.37154577       0.74486425 </v>
   <v>       0.87565750       0.86709134       0.23388016 </v>
   <v>       0.87939263       0.87471904       0.73740593 </v>
   <v>       0.36744349       0.12367285       0.24180399 </v>
   <v>       0.36910893       0.12012043       0.75216738 </v>
   <v>       0.37208715       0.62358737       0.26475781 </v>
   <v>       0.37215461       0.61747454       0.76487335 </v>
   <v>       0.86805465       0.12174338       0.23585340 </v>
   <v>       0.87061659       0.12053847       0.73968205 </v>
   <v>       0.86977433       0.62251735       0.24817573 </v>
   <v>       0.87138380       0.62140541       0.75129547 </v>
   <v>       0.62622158       0.38297073       0.76509908 </v>
   <v>       0.73578419       0.26289314       0.62603876 </v>
   <v>       0.12837126       0.87485933       0.27011212 </v>
   <v>       0.12651331       0.88049983       0.73219710 </v>
   <v>       0.37751750       0.13666661       0.01439637 </v>
   <v>       0.85280261       0.37444729       0.02270182 </v>
   <v>       0.63055958       0.87876251       0.74918066 </v>
   <v>       0.37880954       0.63724310       0.98166519 </v>
   <v>       0.37051775       0.88861143       0.99679667 </v>
   <v>       0.33664150       0.87987432       0.48144106 </v>
   <v>       0.13248819       0.12260402       0.01214269 </v>
   <v>       0.12922926       0.37717310       0.74990466 </v>
   <v>       0.87043979       0.87347949       0.01485734 </v>
   <v>       0.89474934       0.88229065       0.52452536 </v>
   <v>       0.25137496       0.74832912       0.12403668 </v>
   <v>       0.12563725       0.61964703       0.99464145 </v>
   <v>       0.13118584       0.64122631       0.47600132 </v>
   <v>       0.62885253       0.14965398       0.02474528 </v>
   <v>       0.63709076       0.11547561       0.49970019 </v>
   <v>       0.64063025       0.61254115       0.49301959 </v>
   <v>       0.13806005       0.37215227       0.01797672 </v>
   <v>       0.11375168       0.36545749       0.49919730 </v>
   <v>       0.11936079       0.87031263       0.99842822 </v>
   <v>       0.40453033       0.37839174       0.97121947 </v>
   <v>       0.61008319       0.36205645       0.50005342 </v>
   <v>       0.62236321       0.86297186       0.01398724 </v>
   <v>       0.61966877       0.86424564       0.50122179 </v>
   <v>       0.38285907       0.13667851       0.49844325 </v>
   <v>       0.63600603       0.59519039       0.98830600 </v>
   <v>       0.39037916       0.63038311       0.47727085 </v>
   <v>       0.88177665       0.12240437       0.01748101 </v>
   <v>       0.88368905       0.14346766       0.51532995 </v>
   <v>       0.87704321       0.62873447       0.00926472 </v>
   <v>       0.88582372       0.63607723       0.49805681 </v>
   <v>       0.01848052       0.98667733       0.12774543 </v>
   <v>       0.98107620       0.00641443       0.37247041 </v>
   <v>       0.00720348       0.51155156       0.12741693 </v>
   <v>       0.23808572       0.24244425       0.37935030 </v>
   <v>       0.49373181       0.99222837       0.12771809 </v>
   <v>       0.01378926       0.51040026       0.62072095 </v>
   <v>       0.47945430       0.50625401       0.12445067 </v>
   <v>       0.49793794       0.50982856       0.62047726 </v>
   <v>       0.37559464       0.36906644       0.24621838 </v>
   <v>       0.99709511       0.00331576       0.87831688 </v>
   <v>       0.99234438       0.48850195       0.37270054 </v>
   <v>       0.99187241       0.48097078       0.88331158 </v>
   <v>       0.50422286       0.00579314       0.37289056 </v>
   <v>       0.51851079       0.48545823       0.36900111 </v>
   <v>       0.63237199       0.37663864       0.22895929 </v>
   <v>       0.23506765       0.23744973       0.87125912 </v>
   <v>       0.49188823       0.99265895       0.62152981 </v>
   <v>       0.23756107       0.76654656       0.87230812 </v>
   <v>       0.75504659       0.25332763       0.37732341 </v>
   <v>       0.75706444       0.24336131       0.87467678 </v>
   <v>       0.76005791       0.76561716       0.37929506 </v>
   <v>       0.76231737       0.76367160       0.87258494 </v>
   <v>       0.13308950       0.09329427       0.51423056 </v>
   <v>       0.25639169       0.25642578       0.62427857 </v>
   <v>       0.86214084       0.39206587       0.50461785 </v>
   <v>       0.25986473       0.73315082       0.62620260 </v>
   <v>       0.62887334       0.87781978       0.24525284 </v>
   <v>       0.13045955       0.37649286       0.24216922 </v>
   <v>       0.51603052       0.01056951       0.88370633 </v>
   <v>       0.74099713       0.73697125       0.62584283 </v>
  </varray>
 </structure>
 <calculation>
  <scstep>
   <time name="dav">  295.04  295.03</time>
   <time name="total">  298.74  298.80</time>
   <energy>
    <i name="alphaZ">   5626.92307570 </i>
    <i name="ewald"> -62308.85841630 </i>
    <i name="hartreedc"> -17310.89525327 </i>
    <i name="XCdc">   3185.85596284 </i>
    <i name="pawpsdc"> 113596.77779862 </i>
    <i name="pawaedc">-112801.52453410 </i>
    <i name="eentropy">     -0.00000000 </i>
    <i name="bandstr">  -7095.43003570 </i>
    <i name="atom">  76050.17612637 </i>
    <i name="e_fr_energy">  -1056.97527583 </i>
    <i name="e_wo_entrp">  -1056.97527583 </i>
    <i name="e_0_energy">  -1056.97527583 </i>
   </energy>
  </scstep>
  <scstep>
   <time name="diag">   33.27   33.28</time>
   <time name="diis">   30.68   30.70</time>
   <time name="orth">   18.85   18.85</time>
   <time name="total">   86.56   86.62</time>
   <energy>
    <i name="e_fr_energy">  -1056.97527475 </i>
    <i name="e_wo_entrp">  -1056.97527475 </i>
    <i name="e_0_energy">  -1056.97527475 </i>
   </energy>
  </scstep>
  <scstep>
   <time name="diag">   33.31   33.33</time>
   <time name="diis">   29.46   29.45</time>
   <time name="orth">   18.83   18.83</time>
   <time name="total">   85.37   85.44</time>
   <energy>
    <i name="e_fr_energy">  -1056.97527499 </i>
    <i name="e_wo_entrp">  -1056.97527499 </i>
    <i name="e_0_energy">  -1056.97527499 </i>
   </energy>
  </scstep>
  <scstep>
   <time name="diag">   33.27   33.28</time>
   <time name="diis">   24.28   24.30</time>
   <time name="orth">   18.82   18.83</time>
   <time name="total">   80.15   80.24</time>
   <energy>
    <i name="e_fr_energy">  -1056.97527504 </i>
    <i name="e_wo_entrp">  -1056.97527504 </i>
    <i name="e_0_energy">  -1056.97527504 </i>
   </energy>
  </scstep>
  <scstep>
   <time name="diag">   33.27   33.30</time>
   <time name="diis">   23.78   23.79</time>
   <time name="orth">   18.84   18.84</time>
   <time name="total">   79.68   79.75</time>
   <energy>
    <i name="e_fr_energy">  -1056.97527511 </i>
    <i name="e_wo_entrp">  -1056.97527511 </i>
    <i name="e_0_energy">  -1056.97527511 </i>
   </energy>
  </scstep>
  <scstep>
   <time name="diag">   33.23   33.26</time>
   <time name="diis">   22.64   22.64</time>
   <time name="orth">   18.83   18.83</time>
   <time name="total">   78.46   78.58</time>
   <energy>
    <i name="e_fr_energy">  -1056.97527513 </i>
    <i name="e_wo_entrp">  -1056.97527513 </i>
    <i name="e_0_energy">  -1056.97527513 </i>
   </energy>
  </scstep>
  <scstep>
   <time name="diag">   33.25   33.25</time>
   <time name="diis">   22.12   22.14</time>
   <time name="orth">   18.81   18.82</time>
   <time name="total">   77.94   78.04</time>
   <energy>
    <i name="e_fr_energy">  -1056.97527515 </i>
    <i name="e_wo_entrp">  -1056.97527515 </i>
    <i name="e_0_energy">  -1056.97527515 </i>
   </energy>
  </scstep>
  <scstep>
   <time name="diag">   33.25   33.26</time>
   <time name="diis">   21.59   21.60</time>
   <time name="orth">   18.83   18.82</time>
   <time name="total">   74.24   74.31</time>
   <energy>
    <i name="alphaZ">   5626.92307570 </i>
    <i name="ewald"> -62308.85841630 </i>
    <i name="hartreedc"> -17310.88441525 </i>
    <i name="XCdc">   3185.85561399 </i>
    <i name="pawpsdc"> 113596.05026689 </i>
    <i name="pawaedc">-112800.79181034 </i>
    <i name="eentropy">     -0.00000000 </i>
    <i name="bandstr">  -7095.44571622 </i>
    <i name="atom">  76050.17612637 </i>
    <i name="e_fr_energy">  -1056.97527516 </i>
    <i name="e_wo_entrp">  -1056.97527516 </i>
    <i name="e_0_energy">  -1056.97527516 </i>
   </energy>
  </scstep>
  <structure>
   <crystal>
    <varray name="basis" >
     <v>      11.18307230      -0.06518533      -0.00498228 </v>
     <v>      -0.06521182      11.18429001      -0.00127296 </v>
     <v>      -0.00721572      -0.00194210      16.00291155 </v>
    </varray>
    <i name="volume">   2001.49128413 </i>
    <varray name="rec_basis" >
     <v>       0.08942392       0.00052141       0.00004038 </v>
     <v>       0.00052119       0.08941417       0.00001109 </v>
     <v>       0.00002788       0.00000727       0.06248864 </v>
    </varray>
   </crystal>
   <varray name="positions" >
    <v>       0.00405732       0.24922603       0.12627645 </v>
    <v>       0.00030064       0.26144283       0.62813298 </v>
    <v>       0.00710744       0.75116937       0.12186122 </v>
    <v>       0.99614368       0.73934949       0.63474764 </v>
    <v>       0.49550769       0.24524663       0.13398304 </v>
    <v>       0.49908356       0.24242060       0.62515547 </v>
    <v>       0.48787425       0.75652644       0.12847512 </v>
    <v>       0.50476430       0.75553233       0.63343925 </v>
    <v>       0.99744594       0.25569409       0.36912590 </v>
    <v>       0.00235977       0.24821842       0.86343665 </v>
    <v>       0.99157834       0.74430339       0.36725667 </v>
    <v>       0.00358603       0.74731414       0.87735012 </v>
    <v>       0.50000571       0.24786836       0.37659234 </v>
    <v>       0.49823154       0.24016151       0.86563009 </v>
    <v>       0.50621870       0.75552187       0.37180611 </v>
    <v>       0.49806897       0.76149338       0.87399671 </v>
    <v>       0.25094689       0.99427097       0.12267769 </v>
    <v>       0.26327839       0.00024994       0.62985002 </v>
    <v>       0.24259813       0.51219279       0.13087100 </v>
    <v>       0.25085243       0.49401691       0.63565887 </v>
    <v>       0.74800853       0.99636660       0.12561453 </v>
    <v>       0.73939005       0.00018229       0.62668993 </v>
    <v>       0.75734073       0.50710923       0.13071638 </v>
    <v>       0.75177532       0.50009749       0.62709536 </v>
    <v>       0.25556093       0.00922143       0.36919918 </v>
    <v>       0.25151003       0.99669106       0.87476158 </v>
    <v>       0.24904380       0.49496315       0.37235344 </v>
    <v>       0.24484546       0.50095205       0.87547912 </v>
    <v>       0.73931355       0.00489915       0.36881853 </v>
    <v>       0.75099815       0.99747861       0.86405096 </v>
    <v>       0.75318886       0.49820157       0.37557809 </v>
    <v>       0.76160875       0.50248218       0.86880421 </v>
    <v>       0.49853707       0.99995750       0.25010146 </v>
    <v>       0.25003506       0.74898564       0.75341053 </v>
    <v>       0.25009303       0.24700711       0.50261589 </v>
    <v>       0.00027447       0.50256456       0.49954086 </v>
    <v>       0.00006305       0.49959262       0.24928334 </v>
    <v>       0.49998587       0.50072678       0.24820967 </v>
    <v>       0.75117903       0.75041332       0.50332058 </v>
    <v>       0.50198549       0.49844435       0.49602963 </v>
    <v>       0.24922278       0.24786880       0.74868854 </v>
    <v>       0.49842040       0.00391623       0.00436115 </v>
    <v>       0.74577660       0.25151257       0.50318812 </v>
    <v>       0.00370126       0.99592715       0.00424428 </v>
    <v>       0.99871641       0.99896300       0.24664062 </v>
    <v>       0.74907495       0.25083709       0.74774219 </v>
    <v>       0.00065676       0.50102479       0.00379986 </v>
    <v>       0.75020254       0.74975694       0.74991473 </v>
    <v>       0.49846853       0.99956757       0.49889301 </v>
    <v>       0.25102547       0.24839648       0.98724224 </v>
    <v>       0.00152781       0.49940737       0.75120510 </v>
    <v>       0.24838930       0.75311386       0.99525391 </v>
    <v>       0.00097622       0.99826923       0.75801496 </v>
    <v>       0.24850064       0.75132675       0.24291717 </v>
    <v>       0.50025499       0.99965887       0.74828455 </v>
    <v>       0.75085927       0.74931789       0.98848669 </v>
    <v>       0.98461269       0.01753985       0.48938110 </v>
    <v>       0.74981236       0.25136982       0.25816020 </v>
    <v>       0.48617056       0.51696102       0.00782246 </v>
    <v>       0.75014694       0.75245571       0.26105319 </v>
    <v>       0.24775227       0.24959865       0.26146798 </v>
    <v>       0.26703812       0.73248972       0.50948602 </v>
    <v>       0.76720856       0.23468726       0.99115805 </v>
    <v>       0.50034217       0.50078813       0.74053962 </v>
    <v>       0.12122215       0.13000099       0.24298748 </v>
    <v>       0.11592839       0.12717745       0.73501061 </v>
    <v>       0.12532320       0.62767296       0.26195614 </v>
    <v>       0.12042391       0.62825052       0.75818804 </v>
    <v>       0.62196526       0.13121403       0.24388387 </v>
    <v>       0.62067514       0.13031618       0.74585354 </v>
    <v>       0.62391772       0.63331903       0.23681605 </v>
    <v>       0.61857598       0.62881385       0.76400045 </v>
    <v>       0.36308407       0.38549134       0.49496831 </v>
    <v>       0.37964860       0.37131486       0.75571484 </v>
    <v>       0.37585016       0.86965273       0.26084043 </v>
    <v>       0.38019630       0.86983371       0.75441599 </v>
    <v>       0.87814502       0.36847615       0.23819584 </v>
    <v>       0.87833203       0.37154577       0.74486425 </v>
    <v>       0.87565750       0.86709134       0.23388016 </v>
    <v>       0.87939263       0.87471904       0.73740593 </v>
    <v>       0.36744349       0.12367285       0.24180399 </v>
    <v>       0.36910893       0.12012043       0.75216738 </v>
    <v>       0.37208715       0.62358737       0.26475781 </v>
    <v>       0.37215461       0.61747454       0.76487335 </v>
    <v>       0.86805465       0.12174338       0.23585340 </v>
    <v>       0.87061659       0.12053847       0.73968205 </v>
    <v>       0.86977433       0.62251735       0.24817573 </v>
    <v>       0.87138380       0.62140541       0.75129547 </v>
    <v>       0.62622158       0.38297073       0.76509908 </v>
    <v>       0.73578419       0.26289314       0.62603876 </v>
    <v>       0.12837126       0.87485933       0.27011212 </v>
    <v>       0.12651331       0.88049983       0.73219710 </v>
    <v>       0.37751750       0.13666661       0.01439637 </v>
    <v>       0.85280261       0.37444729       0.02270182 </v>
    <v>       0.63055958       0.87876251       0.74918066 </v>
    <v>       0.37880954       0.63724310       0.98166519 </v>
    <v>       0.37051775       0.88861143       0.99679667 </v>
    <v>       0.33664150       0.87987432       0.48144106 </v>
    <v>       0.13248819       0.12260402       0.01214269 </v>
    <v>       0.12922926       0.37717310       0.74990466 </v>
    <v>       0.87043979       0.87347949       0.01485734 </v>
    <v>       0.89474934       0.88229065       0.52452536 </v>
    <v>       0.25137496       0.74832912       0.12403668 </v>
    <v>       0.12563725       0.61964703       0.99464145 </v>
    <v>       0.13118584       0.64122631       0.47600132 </v>
    <v>       0.62885253       0.14965398       0.02474528 </v>
    <v>       0.63709076       0.11547561       0.49970019 </v>
    <v>       0.64063025       0.61254115       0.49301959 </v>
    <v>       0.13806005       0.37215227       0.01797672 </v>
    <v>       0.11375168       0.36545749       0.49919730 </v>
    <v>       0.11936079       0.87031263       0.99842822 </v>
    <v>       0.40453033       0.37839174       0.97121947 </v>
    <v>       0.61008319       0.36205645       0.50005342 </v>
    <v>       0.62236321       0.86297186       0.01398724 </v>
    <v>       0.61966877       0.86424564       0.50122179 </v>
    <v>       0.38285907       0.13667851       0.49844325 </v>
    <v>       0.63600603       0.59519039       0.98830600 </v>
    <v>       0.39037916       0.63038311       0.47727085 </v>
    <v>       0.88177665       0.12240437       0.01748101 </v>
    <v>       0.88368905       0.14346766       0.51532995 </v>
    <v>       0.87704321       0.62873447       0.00926472 </v>
    <v>       0.88582372       0.63607723       0.49805681 </v>
    <v>       0.01848052       0.98667733       0.12774543 </v>
    <v>       0.98107620       0.00641443       0.37247041 </v>
    <v>       0.00720348       0.51155156       0.12741693 </v>
    <v>       0.23808572       0.24244425       0.37935030 </v>
    <v>       0.49373181       0.99222837       0.12771809 </v>
    <v>       0.01378926       0.51040026       0.62072095 </v>
    <v>       0.47945430       0.50625401       0.12445067 </v>
    <v>       0.49793794       0.50982856       0.62047726 </v>
    <v>       0.37559464       0.36906644       0.24621838 </v>
    <v>       0.99709511       0.00331576       0.87831688 </v>
    <v>       0.99234438       0.48850195       0.37270054 </v>
    <v>       0.99187241       0.48097078       0.88331158 </v>
    <v>       0.50422286       0.00579314       0.37289056 </v>
    <v>       0.51851079       0.48545823       0.36900111 </v>
    <v>       0.63237199       0.37663864       0.22895929 </v>
    <v>       0.23506765       0.23744973       0.87125912 </v>
    <v>       0.49188823       0.99265895       0.62152981 </v>
    <v>       0.23756107       0.76654656       0.87230812 </v>
    <v>       0.75504659       0.25332763       0.37732341 </v>
    <v>       0.75706444       0.24336131       0.87467678 </v>
    <v>       0.76005791       0.76561716       0.37929506 </v>
    <v>       0.76231737       0.76367160       0.87258494 </v>
    <v>       0.13308950       0.09329427       0.51423056 </v>
    <v>       0.25639169       0.25642578       0.62427857 </v>
    <v>       0.86214084       0.39206587       0.50461785 </v>
    <v>       0.25986473       0.73315082       0.62620260 </v>
    <v>       0.62887334       0.87781978       0.24525284 </v>
    <v>       0.13045955       0.37649286       0.24216922 </v>
    <v>       0.51603052       0.01056951       0.88370633 </v>
    <v>       0.74099713       0.73697125       0.62584283 </v>
   </varray>
  </structure>
  <varray name="forces" >
   <v>      -0.00174792       0.00522707      -0.00707184 </v>
   <v>       0.00152329      -0.00025699      -0.00048336 </v>
   <v>       0.00072881       0.00455348       0.00098636 </v>
   <v>      -0.00132011      -0.00354997      -0.00196265 </v>
   <v>      -0.00295875       0.00734208       0.00984827 </v>
   <v>      -0.01100828      -0.00533751      -0.00861959 </v>
   <v>      -0.00607985       0.00474300       0.00836203 </v>
   <v>       0.00170282      -0.00719847      -0.00064543 </v>
   <v>      -0.00419419       0.00184133      -0.00372405 </v>
   <v>       0.00560051      -0.00944888      -0.00311383 </v>
   <v>      -0.00587562       0.00717745       0.00064116 </v>
   <v>       0.00544933      -0.00184210      -0.00948611 </v>
   <v>      -0.00423436      -0.00991530       0.00215603 </v>
   <v>      -0.01211717      -0.00161157       0.00081085 </v>
   <v>       0.00405477      -0.00557949       0.00865288 </v>
   <v>      -0.00410906      -0.00073576      -0.00432137 </v>
   <v>      -0.00118584       0.00019708      -0.00421689 </v>
   <v>       0.00685244       0.00124157      -0.00018847 </v>
   <v>       0.00078326       0.00756896      -0.00003372 </v>
   <v>       0.00432041      -0.00363567      -0.00183543 </v>
   <v>      -0.00000988       0.00348325       0.00019908 </v>
   <v>       0.00414732       0.01167708      -0.01168584 </v>
   <v>      -0.00190469      -0.00556571      -0.00018846 </v>
   <v>      -0.00341805       0.00353953      -0.00695871 </v>
   <v>      -0.00746839       0.01035151      -0.00323379 </v>
   <v>      -0.00717260       0.00155648       0.00271123 </v>
   <v>       0.00061872      -0.00933601       0.00132813 </v>
   <v>      -0.00300976       0.00169620       0.00092068 </v>
   <v>       0.00041360       0.00447965       0.00761018 </v>
   <v>       0.00148632       0.00785938       0.00404854 </v>
   <v>      -0.00425292       0.00137292       0.00333163 </v>
   <v>       0.00453402      -0.00494980      -0.00136636 </v>
   <v>      -0.00307698       0.00722411       0.02207706 </v>
   <v>       0.00587397      -0.00490730       0.01191939 </v>
   <v>       0.01670782      -0.01414524       0.00447760 </v>
   <v>      -0.01794856      -0.01481618       0.01279311 </v>
   <v>       0.00893440      -0.00292739      -0.00994264 </v>
   <v>      -0.00955478       0.00380779      -0.00157719 </v>
   <v>      -0.01156638       0.01633348       0.00657725 </v>
   <v>       0.00740567      -0.00760952       0.00726376 </v>
   <v>      -0.00338378       0.00841865      -0.00478531 </v>
   <v>      -0.00418951      -0.01755621       0.00117986 </v>
   <v>       0.01757385      -0.01562462      -0.00294928 </v>
   <v>       0.00195353      -0.00094354      -0.00870671 </v>
   <v>      -0.00344211       0.00486330       0.01028365 </v>
   <v>       0.00004504      -0.01028783      -0.01554483 </v>
   <v>       0.00455612      -0.01566971      -0.00540819 </v>
   <v>       0.02586956      -0.03769258      -0.01032500 </v>
   <v>       0.00653807       0.00923244       0.00032730 </v>
   <v>      -0.01286925       0.00410298      -0.00005913 </v>
   <v>      -0.00092061      -0.00085985      -0.00021582 </v>
   <v>      -0.00163870       0.01209475      -0.00415331 </v>
   <v>       0.00044973       0.00621945       0.00015229 </v>
   <v>       0.01078796       0.00164502       0.00312320 </v>
   <v>      -0.00308553       0.01029130      -0.00663276 </v>
   <v>      -0.01020347       0.00221123      -0.01040735 </v>
   <v>      -0.01894763      -0.00342904       0.00952180 </v>
   <v>      -0.00285580      -0.00134894       0.00636030 </v>
   <v>      -0.00566107       0.00905959       0.01241101 </v>
   <v>      -0.00040271       0.01137918       0.01158969 </v>
   <v>       0.00174227      -0.00289351       0.02734572 </v>
   <v>       0.00957706      -0.00800605      -0.00270581 </v>
   <v>       0.00986609       0.00935680      -0.00737734 </v>
   <v>      -0.01163598       0.01329939      -0.00835174 </v>
   <v>      -0.00452267      -0.00061064      -0.01533330 </v>
   <v>       0.00756710      -0.00691496       0.00501674 </v>
   <v>       0.00101816       0.00532704       0.00525855 </v>
   <v>       0.01101578       0.00754474       0.00405770 </v>
   <v>       0.00643423       0.01256830       0.00015985 </v>
   <v>       0.00005435      -0.00658503       0.00870836 </v>
   <v>       0.00811863       0.00183853       0.00172814 </v>
   <v>      -0.00210322       0.00569571      -0.00436491 </v>
   <v>       0.01296854       0.00661483       0.00140023 </v>
   <v>       0.00332780       0.01113067       0.01139395 </v>
   <v>      -0.00748502      -0.00336084       0.00107151 </v>
   <v>      -0.00199063      -0.00104238      -0.00154133 </v>
   <v>       0.00053543       0.00557762      -0.00358041 </v>
   <v>      -0.00071910       0.00718745      -0.00535444 </v>
   <v>      -0.00240677      -0.01470056      -0.00145214 </v>
   <v>      -0.00325487      -0.00906459      -0.01356652 </v>
   <v>      -0.01187002      -0.00017887      -0.00947536 </v>
   <v>       0.00697732      -0.00134503       0.01466465 </v>
   <v>       0.00556216      -0.00495746       0.00234787 </v>
   <v>       0.00627686      -0.00158169      -0.00580846 </v>
   <v>       0.00940826       0.00086459       0.00444385 </v>
   <v>       0.00548866       0.00654288      -0.00969281 </v>
   <v>      -0.00838430       0.00354167      -0.00184006 </v>
   <v>      -0.00498505       0.00089709       0.00415293 </v>
   <v>      -0.00472488      -0.00477530       0.00781206 </v>
   <v>       0.01009245      -0.00210154      -0.00134298 </v>
   <v>      -0.00683293       0.00556075       0.00576855 </v>
   <v>       0.00460276      -0.00059750      -0.01033346 </v>
   <v>       0.01131731      -0.00115702       0.00211154 </v>
   <v>      -0.01643451      -0.01357404      -0.00571576 </v>
   <v>       0.00003750       0.00665411      -0.00339300 </v>
   <v>       0.00714128      -0.01288151      -0.00748922 </v>
   <v>      -0.00744847      -0.00279033       0.00435152 </v>
   <v>      -0.00728398      -0.01162699       0.01070423 </v>
   <v>       0.00547941      -0.00311818       0.00188836 </v>
   <v>       0.00025543      -0.01205463      -0.00158198 </v>
   <v>      -0.01234219      -0.00973764       0.01798431 </v>
   <v>       0.01043656       0.00711911      -0.00684950 </v>
   <v>      -0.00065387      -0.00137953      -0.00784603 </v>
   <v>       0.00986511       0.00210081       0.00284355 </v>
   <v>      -0.00137169       0.00901504       0.00680325 </v>
   <v>       0.01022420      -0.00311895      -0.00236956 </v>
   <v>       0.00089157       0.00909562      -0.01006993 </v>
   <v>      -0.01793824      -0.00108571      -0.01521234 </v>
   <v>       0.00053216      -0.00577480       0.00751228 </v>
   <v>      -0.00698031       0.00904036       0.00047587 </v>
   <v>      -0.01329921       0.00625597       0.00802285 </v>
   <v>       0.00915387      -0.00006005       0.02453671 </v>
   <v>      -0.00378721       0.01566290      -0.00751341 </v>
   <v>      -0.00077257      -0.01611700      -0.00091484 </v>
   <v>       0.00568320      -0.01131725      -0.00788817 </v>
   <v>      -0.00975034       0.00534402      -0.00336693 </v>
   <v>      -0.00060938       0.00108815      -0.00785409 </v>
   <v>      -0.01357979      -0.00189128       0.00916166 </v>
   <v>      -0.00516202       0.00303405       0.00077243 </v>
   <v>       0.00655324      -0.01196623       0.00716402 </v>
   <v>      -0.01401169       0.00394466      -0.00066111 </v>
   <v>       0.00032780      -0.01612944      -0.01307362 </v>
   <v>      -0.00706131       0.01064641       0.00599789 </v>
   <v>       0.00109022      -0.00027038      -0.01431545 </v>
   <v>      -0.00334801       0.00209497       0.00253764 </v>
   <v>       0.00000635       0.00493851      -0.00818715 </v>
   <v>       0.00347301       0.00795928      -0.00694246 </v>
   <v>      -0.00867335       0.00444762      -0.00528373 </v>
   <v>       0.01913432       0.01301098      -0.00751186 </v>
   <v>       0.00733522      -0.00305649      -0.01860421 </v>
   <v>       0.00820331       0.00017792      -0.01863119 </v>
   <v>      -0.00363428      -0.01363107       0.01264762 </v>
   <v>       0.00757695       0.00416200       0.00721193 </v>
   <v>      -0.00852970       0.00014755       0.00405761 </v>
   <v>      -0.00088966      -0.00449457       0.00084079 </v>
   <v>      -0.01070232       0.00088732       0.00720732 </v>
   <v>      -0.00438775      -0.00581985      -0.00049684 </v>
   <v>       0.01095462       0.01489401       0.00315451 </v>
   <v>      -0.00305177       0.00679350       0.01505020 </v>
   <v>       0.00056284       0.00486600      -0.00098611 </v>
   <v>       0.00506951      -0.00006836      -0.00855701 </v>
   <v>       0.00219059       0.00335993       0.02332375 </v>
   <v>      -0.00407028       0.00920738       0.00741351 </v>
   <v>      -0.00015455       0.00003164       0.00775990 </v>
   <v>      -0.00094252       0.00597721      -0.00257058 </v>
   <v>       0.00806391      -0.00779404      -0.00899115 </v>
   <v>       0.00535163      -0.00201112       0.00107361 </v>
   <v>       0.00871777      -0.00199229      -0.00644886 </v>
   <v>       0.01099152      -0.01112982      -0.00929013 </v>
   <v>      -0.00407695       0.00424810       0.00061690 </v>
   <v>      -0.00165077      -0.00547984      -0.00734173 </v>
   <v>       0.00916279       0.00448104      -0.00229833 </v>
  </varray>
  <varray name="stress" >
   <v>       0.20834369      -0.01865521       0.03591762 </v>
   <v>      -0.01865506       0.16961122      -0.00115877 </v>
   <v>       0.03591760      -0.00115924      -0.09552037 </v>
  </varray>
  <energy>
   <i name="e_fr_energy">  -1056.97527516 </i>
   <i name="e_wo_entrp">  -1056.97527516 </i>
   <i name="e_0_energy">     -0.00000000 </i>
  </energy>
  <time name="totalsc"> 1013.08 1015.08</time>
 </calculation>
 <calculation>
  <scstep>
   <time name="dav">  283.54  283.88</time>
   <time name="total">  287.29  287.70</time>
   <energy>
    <i name="alphaZ">   5626.29303383 </i>
    <i name="ewald"> -62306.23730105 </i>
    <i name="hartreedc"> -17310.44946189 </i>
    <i name="XCdc">   3185.71115856 </i>
    <i name="pawpsdc"> 113596.04122608 </i>
    <i name="pawaedc">-112800.78273214 </i>
    <i name="eentropy">     -0.00000000 </i>
    <i name="bandstr">  -7097.72713674 </i>
    <i name="atom">  76050.17612637 </i>
    <i name="e_fr_energy">  -1056.97508696 </i>
    <i name="e_wo_entrp">  -1056.97508696 </i>
    <i name="e_0_energy">  -1056.97508696 </i>
   </energy>
  </scstep>
  <scstep>
   <time name="diag">   33.21   33.23</time>
   <time name="diis">   51.99   52.00</time>
   <time name="orth">   18.81   18.81</time>
   <time name="total">  107.77  108.44</time>
   <energy>
    <i name="e_fr_energy">  -1056.97593364 </i>
    <i name="e_wo_entrp">  -1056.97593364 </i>
    <i name="e_0_energy">  -1056.97593364 </i>
   </energy>
  </scstep>
  <scstep>
   <time name="diag">   33.23   33.24</time>
   <time name="diis">   42.95   42.96</time>
   <time name="orth">   18.83   18.83</time>
   <time name="total">   98.78   98.82</time>
   <energy>
    <i name="e_fr_energy">  -1056.97599006 </i>
    <i name="e_wo_entrp">  -1056.97599006 </i>
    <i name="e_0_energy">  -1056.97599006 </i>
   </energy>
  </scstep>
  <scstep>
   <time name="diag">   33.19   33.21</time>
   <time name="diis">   32.82   32.84</time>
   <time name="orth">   18.82   18.83</time>
   <time name="total">   88.59   88.69</time>
   <energy>
    <i name="e_fr_energy">  -1056.97594118 </i>
    <i name="e_wo_entrp">  -1056.97594118 </i>
    <i name="e_0_energy">  -1056.97594118 </i>
   </energy>
  </scstep>
  <scstep>
   <time name="diag">   33.25   33.26</time>
   <time name="diis">   32.36   32.36</time>
   <time name="orth">   18.83   18.82</time>
   <time name="total">   88.21   88.29</time>
   <energy>
    <i name="e_fr_energy">  -1056.97591899 </i>
    <i name="e_wo_entrp">  -1056.97591899 </i>
    <i name="e_0_energy">  -1056.97591899 </i>
   </energy>
  </scstep>
  <scstep>
   <time name="diag">   33.23   33.23</time>
   <time name="diis">   31.39   31.43</time>
   <time name="orth">   18.85   18.84</time>
   <time name="total">   87.23   87.36</time>
   <energy>
    <i name="e_fr_energy">  -1056.97591927 </i>
    <i name="e_wo_entrp">  -1056.97591927 </i>
    <i name="e_0_energy">  -1056.97591927 </i>
   </energy>
  </scstep>
  <scstep>
   <time name="diag">   33.15   33.17</time>
   <time name="diis">   29.93   29.95</time>
   <time name="orth">   18.83   18.84</time>
   <time name="total">   85.61   85.72</time>
   <energy>
    <i name="e_fr_energy">  -1056.97591920 </i>
    <i name="e_wo_entrp">  -1056.97591920 </i>
    <i name="e_0_energy">  -1056.97591920 </i>
   </energy>
  </scstep>
  <scstep>
   <time name="diag">   33.13   33.15</time>
   <time name="diis">   28.48   28.49</time>
   <time name="orth">   18.85   18.85</time>
   <time name="total">   81.03   81.14</time>
   <energy>
    <i name="alphaZ">   5626.29303383 </i>
    <i name="ewald"> -62306.23730105 </i>
    <i name="hartreedc"> -17311.96721728 </i>
    <i name="XCdc">   3185.82496574 </i>
    <i name="pawpsdc"> 113575.17653952 </i>
    <i name="pawaedc">-112779.91359362 </i>
    <i name="eentropy">     -0.00000000 </i>
    <i name="bandstr">  -7096.32847245 </i>
    <i name="atom">  76050.17612637 </i>
    <i name="e_fr_energy">  -1056.97591895 </i>
    <i name="e_wo_entrp">  -1056.97591895 </i>
    <i name="e_0_energy">  -1056.97591895 </i>
   </energy>
  </scstep>
  <structure>
   <crystal>
    <varray name="basis" >
     <v>      11.18399649      -0.06527243      -0.00482280 </v>
     <v>      -0.06529995      11.18504263      -0.00127898 </v>
     <v>      -0.00698841      -0.00194953      16.00230537 </v>
    </varray>
    <i name="volume">   2001.71541453 </i>
    <varray name="rec_basis" >
     <v>       0.08941654       0.00052203       0.00003911 </v>
     <v>       0.00052181       0.08940816       0.00001112 </v>
     <v>       0.00002699       0.00000730       0.06249101 </v>
    </varray>
   </crystal>
   <varray name="positions" >
    <v>       0.00404989       0.24924853       0.12625513 </v>
    <v>       0.00030721       0.26144175       0.62813152 </v>
    <v>       0.00711070       0.75118903       0.12186419 </v>
    <v>       0.99613790       0.73933414       0.63474172 </v>
    <v>       0.49549513       0.24527823       0.13401273 </v>
    <v>       0.49903592       0.24239729       0.62512946 </v>
    <v>       0.48784816       0.75654675       0.12850032 </v>
    <v>       0.50477146       0.75550132       0.63343731 </v>
    <v>       0.99742789       0.25570192       0.36911467 </v>
    <v>       0.00238369       0.24817780       0.86342727 </v>
    <v>       0.99155317       0.74433421       0.36725860 </v>
    <v>       0.00360947       0.74730633       0.87732153 </v>
    <v>       0.49998720       0.24782548       0.37659883 </v>
    <v>       0.49817923       0.24015425       0.86563252 </v>
    <v>       0.50623607       0.75549791       0.37183220 </v>
    <v>       0.49805121       0.76149010       0.87398368 </v>
    <v>       0.25094177       0.99427178       0.12266497 </v>
    <v>       0.26330798       0.00025547       0.62984946 </v>
    <v>       0.24260170       0.51222546       0.13087090 </v>
    <v>       0.25087097       0.49400134       0.63565335 </v>
    <v>       0.74800857       0.99638163       0.12561513 </v>
    <v>       0.73940821       0.00023276       0.62665471 </v>
    <v>       0.75733237       0.50708517       0.13071580 </v>
    <v>       0.75176065       0.50011267       0.62707438 </v>
    <v>       0.25552896       0.00926590       0.36918943 </v>
    <v>       0.25147913       0.99669760       0.87476974 </v>
    <v>       0.24904623       0.49492289       0.37235744 </v>
    <v>       0.24483252       0.50095929       0.87548190 </v>
    <v>       0.73931547       0.00491849       0.36884147 </v>
    <v>       0.75100477       0.99751255       0.86406317 </v>
    <v>       0.75317055       0.49820738       0.37558813 </v>
    <v>       0.76162819       0.50246095       0.86880010 </v>
    <v>       0.49852402       0.99998859       0.25016802 </v>
    <v>       0.25006030       0.74896463       0.75344647 </v>
    <v>       0.25016476       0.24694651       0.50262941 </v>
    <v>       0.00019669       0.50250021       0.49957940 </v>
    <v>       0.00010150       0.49958021       0.24925337 </v>
    <v>       0.49994475       0.50074297       0.24820490 </v>
    <v>       0.75112956       0.75048349       0.50334040 </v>
    <v>       0.50201726       0.49841172       0.49605154 </v>
    <v>       0.24920838       0.24790502       0.74867411 </v>
    <v>       0.49840188       0.00384040       0.00436469 </v>
    <v>       0.74585202       0.25144562       0.50317925 </v>
    <v>       0.00370964       0.99592313       0.00421803 </v>
    <v>       0.99870171       0.99898390       0.24667162 </v>
    <v>       0.74907485       0.25079271       0.74769532 </v>
    <v>       0.00067601       0.50095731       0.00378356 </v>
    <v>       0.75031318       0.74959500       0.74988362 </v>
    <v>       0.49849696       0.99960756       0.49889401 </v>
    <v>       0.25097006       0.24841386       0.98724205 </v>
    <v>       0.00152382       0.49940364       0.75120445 </v>
    <v>       0.24838253       0.75316598       0.99524139 </v>
    <v>       0.00097831       0.99829607       0.75801542 </v>
    <v>       0.24854723       0.75133412       0.24292660 </v>
    <v>       0.50024193       0.99970318       0.74826455 </v>
    <v>       0.75081529       0.74932716       0.98845530 </v>
    <v>       0.98453088       0.01752459       0.48940977 </v>
    <v>       0.74980002       0.25136393       0.25817937 </v>
    <v>       0.48614639       0.51699997       0.00785987 </v>
    <v>       0.75014551       0.75250479       0.26108813 </v>
    <v>       0.24775976       0.24958622       0.26155042 </v>
    <v>       0.26707923       0.73245543       0.50947787 </v>
    <v>       0.76725135       0.23472787       0.99113583 </v>
    <v>       0.50029229       0.50084521       0.74051443 </v>
    <v>       0.12120260       0.12999823       0.24294125 </v>
    <v>       0.11596087       0.12714781       0.73502574 </v>
    <v>       0.12532773       0.62769597       0.26197200 </v>
    <v>       0.12047163       0.62828334       0.75820029 </v>
    <v>       0.62199333       0.13126841       0.24388436 </v>
    <v>       0.62067522       0.13028778       0.74587979 </v>
    <v>       0.62395279       0.63332716       0.23682127 </v>
    <v>       0.61856704       0.62883837       0.76398729 </v>
    <v>       0.36314018       0.38552020       0.49497255 </v>
    <v>       0.37966326       0.37136297       0.75574920 </v>
    <v>       0.37581779       0.86963805       0.26084365 </v>
    <v>       0.38018768       0.86982916       0.75441134 </v>
    <v>       0.87814747       0.36850022       0.23818505 </v>
    <v>       0.87832909       0.37157675       0.74484811 </v>
    <v>       0.87564674       0.86702787       0.23387578 </v>
    <v>       0.87937833       0.87467985       0.73736503 </v>
    <v>       0.36739226       0.12367177       0.24177541 </v>
    <v>       0.36913902       0.12011481       0.75221160 </v>
    <v>       0.37211103       0.62356613       0.26476489 </v>
    <v>       0.37218164       0.61746787       0.76485585 </v>
    <v>       0.86809527       0.12174735       0.23586681 </v>
    <v>       0.87064041       0.12056683       0.73965284 </v>
    <v>       0.86973825       0.62253241       0.24817017 </v>
    <v>       0.87136232       0.62140915       0.75130798 </v>
    <v>       0.62620109       0.38295002       0.76512262 </v>
    <v>       0.73582768       0.26288433       0.62603472 </v>
    <v>       0.12834194       0.87488315       0.27012950 </v>
    <v>       0.12653313       0.88049736       0.73216596 </v>
    <v>       0.37756630       0.13666190       0.01440275 </v>
    <v>       0.85273136       0.37438832       0.02268457 </v>
    <v>       0.63055990       0.87879121       0.74917043 </v>
    <v>       0.37884001       0.63718771       0.98164262 </v>
    <v>       0.37048556       0.88859921       0.99680978 </v>
    <v>       0.33660980       0.87982399       0.48147331 </v>
    <v>       0.13251175       0.12259071       0.01214839 </v>
    <v>       0.12923006       0.37712111       0.74989989 </v>
    <v>       0.87038634       0.87343718       0.01491154 </v>
    <v>       0.89479453       0.88232162       0.52450473 </v>
    <v>       0.25137209       0.74832315       0.12401302 </v>
    <v>       0.12567987       0.61965634       0.99465004 </v>
    <v>       0.13118017       0.64126517       0.47602183 </v>
    <v>       0.62889655       0.14964078       0.02473815 </v>
    <v>       0.63709482       0.11551486       0.49966983 </v>
    <v>       0.64055281       0.61253601       0.49297370 </v>
    <v>       0.13806221       0.37212738       0.01799936 </v>
    <v>       0.11372180       0.36549631       0.49919873 </v>
    <v>       0.11930359       0.87033929       0.99845239 </v>
    <v>       0.40456987       0.37839172       0.97129346 </v>
    <v>       0.61006723       0.36212391       0.50003077 </v>
    <v>       0.62235947       0.86290232       0.01398447 </v>
    <v>       0.61969299       0.86419696       0.50119801 </v>
    <v>       0.38281713       0.13670131       0.49843308 </v>
    <v>       0.63600341       0.59519506       0.98828232 </v>
    <v>       0.39032054       0.63037462       0.47729845 </v>
    <v>       0.88175446       0.12241733       0.01748333 </v>
    <v>       0.88371703       0.14341621       0.51535155 </v>
    <v>       0.87698286       0.62875114       0.00926271 </v>
    <v>       0.88582471       0.63600765       0.49801739 </v>
    <v>       0.01845034       0.98672308       0.12776350 </v>
    <v>       0.98108087       0.00641328       0.37242725 </v>
    <v>       0.00718909       0.51156052       0.12742458 </v>
    <v>       0.23808586       0.24246555       0.37932562 </v>
    <v>       0.49374698       0.99226279       0.12769717 </v>
    <v>       0.01375195       0.51041922       0.62070502 </v>
    <v>       0.47953716       0.50631062       0.12442805 </v>
    <v>       0.49796947       0.50981555       0.62042118 </v>
    <v>       0.37562999       0.36906741       0.24616222 </v>
    <v>       0.99707912       0.00325688       0.87835500 </v>
    <v>       0.99237719       0.48852010       0.37272230 </v>
    <v>       0.99183562       0.48097120       0.88332380 </v>
    <v>       0.50421891       0.00577373       0.37289309 </v>
    <v>       0.51846465       0.48546180       0.36902282 </v>
    <v>       0.63235291       0.37661343       0.22895779 </v>
    <v>       0.23511529       0.23751425       0.87126865 </v>
    <v>       0.49187526       0.99268818       0.62157518 </v>
    <v>       0.23756362       0.76656757       0.87230515 </v>
    <v>       0.75506844       0.25332745       0.37729762 </v>
    <v>       0.75707402       0.24337587       0.87474710 </v>
    <v>       0.76004060       0.76565678       0.37931740 </v>
    <v>       0.76231672       0.76367173       0.87260833 </v>
    <v>       0.13308557       0.09332003       0.51422281 </v>
    <v>       0.25642626       0.25639236       0.62425148 </v>
    <v>       0.86216388       0.39205733       0.50462109 </v>
    <v>       0.25990227       0.73314244       0.62618317 </v>
    <v>       0.62892046       0.87777204       0.24522485 </v>
    <v>       0.13044207       0.37651108       0.24217107 </v>
    <v>       0.51602325       0.01054582       0.88368419 </v>
    <v>       0.74103677       0.73699081       0.62583592 </v>
   </varray>
  </structure>
  <varray name="forces" >
   <v>      -0.00250157      -0.00084073      -0.00318961 </v>
   <v>       0.00349373       0.00141958      -0.00219498 </v>
   <v>      -0.00459851       0.00514393       0.00161351 </v>
   <v>       0.00664150      -0.00111980      -0.00846128 </v>
   <v>       0.00058727       0.00414835      -0.00100045 </v>
   <v>      -0.00569848       0.00000866      -0.00148837 </v>
   <v>       0.00167941       0.00456923       0.00703830 </v>
   <v>      -0.00057463      -0.00442051       0.00330179 </v>
   <v>      -0.00100692       0.00579471      -0.00663306 </v>
   <v>       0.00133760      -0.00869177       0.00004079 </v>
   <v>      -0.00212063      -0.00063135       0.00007838 </v>
   <v>       0.00086996      -0.00152292      -0.00195168 </v>
   <v>      -0.00057259       0.00510995      -0.00177703 </v>
   <v>      -0.01010334      -0.00197982       0.00831884 </v>
   <v>       0.00387595      -0.01094728       0.00605507 </v>
   <v>       0.00285301       0.00133563      -0.00301596 </v>
   <v>      -0.00259944       0.00272639      -0.00309177 </v>
   <v>       0.00442336      -0.00671235       0.00181753 </v>
   <v>       0.00174107       0.00640675      -0.00110381 </v>
   <v>       0.00202916       0.00246635      -0.00933767 </v>
   <v>       0.00098152       0.00128026      -0.00446444 </v>
   <v>       0.00277155       0.00311422       0.00117950 </v>
   <v>      -0.00308740      -0.00143638       0.00041090 </v>
   <v>      -0.00451115       0.00002316      -0.00987495 </v>
   <v>      -0.01094492      -0.00052421      -0.00275460 </v>
   <v>      -0.00203502       0.00355352       0.00237252 </v>
   <v>      -0.00310702      -0.00430224       0.00642862 </v>
   <v>       0.00460003       0.00095118       0.00553756 </v>
   <v>       0.00507400       0.00073760      -0.00114554 </v>
   <v>      -0.00295661       0.00000371       0.00354276 </v>
   <v>      -0.00283297       0.00501760      -0.00174324 </v>
   <v>      -0.00331841      -0.00795804       0.00748953 </v>
   <v>       0.00129739       0.00073720      -0.01170221 </v>
   <v>       0.00951681       0.00792495      -0.01014150 </v>
   <v>      -0.01159083       0.01068235      -0.00436629 </v>
   <v>       0.00394708       0.00230663      -0.01573821 </v>
   <v>      -0.00826564       0.01077057       0.00599625 </v>
   <v>       0.00608960       0.00516568       0.00009141 </v>
   <v>       0.00517683      -0.01357206      -0.00808635 </v>
   <v>      -0.00520565       0.00613977      -0.00996647 </v>
   <v>       0.01096939       0.00025965       0.00618302 </v>
   <v>       0.00592047      -0.00394251      -0.00164530 </v>
   <v>      -0.00188397       0.01727642      -0.00781978 </v>
   <v>      -0.01797928       0.00396806       0.01398563 </v>
   <v>      -0.00453039      -0.00090527      -0.00695104 </v>
   <v>      -0.01194030      -0.00211430       0.01560183 </v>
   <v>      -0.00665925       0.00852734       0.00955588 </v>
   <v>      -0.03664546       0.04418335       0.00838495 </v>
   <v>      -0.00043064      -0.00184105       0.01043524 </v>
   <v>       0.00587343      -0.00728111       0.00769009 </v>
   <v>       0.00389343      -0.00334912      -0.00271212 </v>
   <v>       0.00212560       0.00141169       0.00100128 </v>
   <v>       0.00011949      -0.00892018      -0.00056792 </v>
   <v>      -0.00449506       0.00022553      -0.00080321 </v>
   <v>       0.00592101      -0.01060985       0.00616780 </v>
   <v>      -0.00586368      -0.00452568       0.00478527 </v>
   <v>       0.01005278      -0.00456206      -0.01048183 </v>
   <v>       0.00414473       0.00667489      -0.00940922 </v>
   <v>       0.01009012       0.00356231      -0.00384514 </v>
   <v>       0.00643414      -0.00245510       0.00129259 </v>
   <v>      -0.00266123       0.00518005      -0.00422266 </v>
   <v>      -0.00780000      -0.01213365      -0.00044621 </v>
   <v>      -0.00697207      -0.00867247       0.00993328 </v>
   <v>       0.00259921       0.00294266      -0.00487494 </v>
   <v>       0.00378293       0.00677896      -0.00706636 </v>
   <v>       0.00634637      -0.00308540       0.00491341 </v>
   <v>       0.00530054       0.00599575       0.00199776 </v>
   <v>      -0.00403283      -0.01060065       0.00372407 </v>
   <v>      -0.00432647      -0.00094236       0.00608530 </v>
   <v>       0.00930481       0.00553322       0.00231792 </v>
   <v>       0.00068578      -0.00284522       0.00518735 </v>
   <v>      -0.00065674       0.00034689      -0.00938992 </v>
   <v>      -0.00054463      -0.01123661       0.00320328 </v>
   <v>      -0.00296277       0.00604435       0.00375679 </v>
   <v>       0.00223009       0.00460661       0.00366226 </v>
   <v>      -0.00453951      -0.00275011      -0.00218249 </v>
   <v>      -0.00160578      -0.00132635      -0.00134078 </v>
   <v>      -0.00016079       0.00567708      -0.00584312 </v>
   <v>       0.00516647      -0.00243088       0.00025071 </v>
   <v>       0.00620048       0.00010999      -0.01176270 </v>
   <v>      -0.00207961      -0.00642979      -0.00028843 </v>
   <v>      -0.00336967       0.00955136       0.00991823 </v>
   <v>       0.00187423       0.00049654       0.00028193 </v>
   <v>       0.00318830      -0.00048769      -0.00495285 </v>
   <v>       0.00263227       0.00383090       0.00798294 </v>
   <v>       0.00836101       0.00436322      -0.00942040 </v>
   <v>       0.00103820      -0.00259075       0.00180140 </v>
   <v>       0.00694860      -0.01043018       0.00016272 </v>
[...]
       <r>   -17.0393     0.0000    32.0000 </r>
       <r>   -16.8859     0.0000    32.0000 </r>
       <r>   -16.7325     0.0000    32.0000 </r>
       <r>   -16.5791     0.0000    32.0000 </r>
       <r>   -16.4257     0.0000    32.0000 </r>
       <r>   -16.2724     0.0000    32.0000 </r>
       <r>   -16.1190     0.0000    32.0000 </r>
       <r>   -15.9656     0.0000    32.0000 </r>
       <r>   -15.8122     0.0000    32.0000 </r>
       <r>   -15.6588     0.0000    32.0000 </r>
       <r>   -15.5055     0.0000    32.0000 </r>
       <r>   -15.3521     0.0000    32.0000 </r>
       <r>   -15.1987     0.0045    32.0007 </r>
       <r>   -15.0453     8.9914    33.3798 </r>
       <r>   -14.8919    42.9143    39.9620 </r>
       <r>   -14.7385    42.4264    46.4694 </r>
       <r>   -14.5852    42.1431    52.9334 </r>
       <r>   -14.4318    32.3185    57.8904 </r>
       <r>   -14.2784    32.6229    62.8941 </r>
       <r>   -14.1250    70.5646    73.7174 </r>
       <r>   -13.9716    97.7697    88.7134 </r>
       <r>   -13.8183    86.7530   102.0196 </r>
       <r>   -13.6649    73.8136   113.3412 </r>
       <r>   -13.5115    41.1326   119.6502 </r>
       <r>   -13.3581     2.2809   120.0000 </r>
       <r>   -13.2047     0.0000   120.0000 </r>
       <r>   -13.0514     0.0000   120.0000 </r>
       <r>   -12.8980     0.0001   120.0000 </r>
       <r>   -12.7446     9.5382   121.4630 </r>
       <r>   -12.5912    80.4891   133.8085 </r>
       <r>   -12.4378   138.1454   154.9973 </r>
       <r>   -12.2845   127.3658   174.5328 </r>
       <r>   -12.1311   104.7613   190.6012 </r>
       <r>   -11.9777    98.8932   205.7695 </r>
       <r>   -11.8243    59.0602   214.8282 </r>
       <r>   -11.6709     7.6393   215.9999 </r>
       <r>   -11.5176     0.0004   216.0000 </r>
       <r>   -11.3642     0.0000   216.0000 </r>
       <r>   -11.2108     0.0000   216.0000 </r>
       <r>   -11.0574     0.0000   216.0000 </r>
       <r>   -10.9040     0.0000   216.0000 </r>
       <r>   -10.7506     0.0000   216.0000 </r>
       <r>   -10.5973     0.0000   216.0000 </r>
       <r>   -10.4439     0.0000   216.0000 </r>
       <r>   -10.2905     0.0000   216.0000 </r>
       <r>   -10.1371     0.0000   216.0000 </r>
       <r>    -9.9837     0.0000   216.0000 </r>
       <r>    -9.8304     0.0000   216.0000 </r>
       <r>    -9.6770     0.0000   216.0000 </r>
       <r>    -9.5236     0.0000   216.0000 </r>
       <r>    -9.3702     0.0000   216.0000 </r>
       <r>    -9.2168     0.0000   216.0000 </r>
       <r>    -9.0635     0.0000   216.0000 </r>
       <r>    -8.9101     0.0000   216.0000 </r>
       <r>    -8.7567     0.0000   216.0000 </r>
       <r>    -8.6033     0.0000   216.0000 </r>
       <r>    -8.4499     0.0000   216.0000 </r>
       <r>    -8.2966     0.0000   216.0000 </r>
       <r>    -8.1432     0.0000   216.0000 </r>
       <r>    -7.9898     0.0000   216.0000 </r>
       <r>    -7.8364     0.0000   216.0000 </r>
       <r>    -7.6830     0.0000   216.0000 </r>
       <r>    -7.5297     0.0000   216.0000 </r>
       <r>    -7.3763     0.0000   216.0000 </r>
       <r>    -7.2229     0.0000   216.0000 </r>
       <r>    -7.0695     0.0000   216.0000 </r>
       <r>    -6.9161     0.0000   216.0000 </r>
       <r>    -6.7627     0.0000   216.0000 </r>
       <r>    -6.6094     0.0000   216.0000 </r>
       <r>    -6.4560     0.0000   216.0000 </r>
       <r>    -6.3026     0.0000   216.0000 </r>
       <r>    -6.1492     0.0000   216.0000 </r>
       <r>    -5.9958     0.0000   216.0000 </r>
       <r>    -5.8425     0.0000   216.0000 </r>
       <r>    -5.6891     0.0000   216.0000 </r>
       <r>    -5.5357     0.0000   216.0000 </r>
       <r>    -5.3823     0.0000   216.0000 </r>
       <r>    -5.2289     0.0000   216.0000 </r>
       <r>    -5.0756     0.0000   216.0000 </r>
       <r>    -4.9222     0.0000   216.0000 </r>
       <r>    -4.7688     0.0000   216.0000 </r>
       <r>    -4.6154     0.0000   216.0000 </r>
       <r>    -4.4620     0.0000   216.0000 </r>
       <r>    -4.3087     0.0000   216.0000 </r>
       <r>    -4.1553     0.0000   216.0000 </r>
       <r>    -4.0019     0.0000   216.0000 </r>
       <r>    -3.8485     0.0000   216.0000 </r>
       <r>    -3.6951     0.0000   216.0000 </r>
       <r>    -3.5417     0.0000   216.0000 </r>
       <r>    -3.3884     0.0000   216.0000 </r>
       <r>    -3.2350     0.0000   216.0000 </r>
       <r>    -3.0816     0.0000   216.0000 </r>
       <r>    -2.9282     0.0000   216.0000 </r>
       <r>    -2.7748     0.0000   216.0000 </r>
       <r>    -2.6215     0.0000   216.0000 </r>
       <r>    -2.4681     0.1973   216.0303 </r>
       <r>    -2.3147     9.6769   217.5145 </r>
       <r>    -2.1613    18.4430   220.3433 </r>
       <r>    -2.0079    30.3486   224.9982 </r>
       <r>    -1.8546    30.5660   229.6864 </r>
       <r>    -1.7012    32.0270   234.5988 </r>
       <r>    -1.5478    32.4238   239.5720 </r>
       <r>    -1.3944    38.7411   245.5141 </r>
       <r>    -1.2410    64.0169   255.3331 </r>
       <r>    -1.0877    71.6467   266.3223 </r>
       <r>    -0.9343    73.9040   277.6578 </r>
       <r>    -0.7809    76.9868   289.4661 </r>
       <r>    -0.6275    87.2796   302.8531 </r>
       <r>    -0.4741   103.9639   318.7992 </r>
       <r>    -0.3208    81.9818   331.3736 </r>
       <r>    -0.1674    66.0326   341.5017 </r>
       <r>    -0.0140    51.2609   349.3642 </r>
       <r>     0.1394    44.6071   356.2060 </r>
       <r>     0.2928    52.0374   364.1876 </r>
       <r>     0.4462    63.3419   373.9030 </r>
       <r>     0.5995    63.3415   383.6184 </r>
       <r>     0.7529    57.4370   392.4281 </r>
       <r>     0.9063    55.4140   400.9275 </r>
       <r>     1.0597    52.3914   408.9634 </r>
       <r>     1.2131    58.6925   417.9657 </r>
       <r>     1.3664    70.1043   428.7183 </r>
       <r>     1.5198    73.8033   440.0383 </r>
       <r>     1.6732    82.1951   452.6455 </r>
       <r>     1.8266    65.1160   462.6330 </r>
       <r>     1.9800    53.2555   470.8014 </r>
       <r>     2.1333    36.0110   476.3248 </r>
       <r>     2.2867     8.1424   477.5737 </r>
       <r>     2.4401    14.8639   479.8535 </r>
       <r>     2.5935     0.9550   480.0000 </r>
       <r>     2.7469     0.0000   480.0000 </r>
       <r>     2.9002     0.0000   480.0000 </r>
       <r>     3.0536     0.0000   480.0000 </r>
       <r>     3.2070     0.0000   480.0000 </r>
       <r>     3.3604     0.0000   480.0000 </r>
       <r>     3.5138     0.0000   480.0000 </r>
       <r>     3.6671     0.0000   480.0000 </r>
       <r>     3.8205     0.0000   480.0000 </r>
       <r>     3.9739     0.0000   480.0000 </r>
       <r>     4.1273     0.0000   480.0000 </r>
       <r>     4.2807     0.0003   480.0000 </r>
       <r>     4.4341     6.6167   481.0149 </r>
       <r>     4.5874    36.2257   486.5712 </r>
       <r>     4.7408    59.3325   495.6717 </r>
       <r>     4.8942    52.5195   503.7272 </r>
       <r>     5.0476    59.1373   512.7977 </r>
       <r>     5.2010    68.3767   523.2854 </r>
       <r>     5.3543    84.2424   536.2066 </r>
       <r>     5.5077    66.8024   546.4528 </r>
       <r>     5.6611    62.7089   556.0711 </r>
       <r>     5.8145    60.4690   565.3459 </r>
       <r>     5.9679    80.7819   577.7363 </r>
       <r>     6.1212    74.0410   589.0928 </r>
       <r>     6.2746    90.8346   603.0250 </r>
       <r>     6.4280    32.0963   607.9480 </r>
       <r>     6.5814     9.1479   609.3511 </r>
       <r>     6.7348     6.2866   610.3154 </r>
       <r>     6.8881    12.8337   612.2838 </r>
       <r>     7.0415    11.1026   613.9867 </r>
       <r>     7.1949    18.5782   616.8363 </r>
       <r>     7.3483    18.9270   619.7393 </r>
       <r>     7.5017    17.0790   622.3589 </r>
       <r>     7.6551    17.6583   625.0674 </r>
       <r>     7.8084    17.9530   627.8210 </r>
       <r>     7.9618    22.2072   631.2272 </r>
       <r>     8.1152    24.8847   635.0440 </r>
       <r>     8.2686    21.2526   638.3037 </r>
       <r>     8.4220    29.9489   642.8973 </r>
       <r>     8.5753    27.8361   647.1668 </r>
       <r>     8.7287    34.0529   652.3899 </r>
       <r>     8.8821    32.4058   657.3603 </r>
       <r>     9.0355    31.9456   662.2602 </r>
       <r>     9.1889    32.5206   667.2482 </r>
       <r>     9.3422    40.1965   673.4136 </r>
       <r>     9.4956    40.3472   679.6021 </r>
       <r>     9.6490    51.8595   687.5563 </r>
       <r>     9.8024    51.2239   695.4131 </r>
       <r>     9.9558    61.4207   704.8338 </r>
       <r>    10.1091    61.8668   714.3230 </r>
       <r>    10.2625    54.2443   722.6431 </r>
       <r>    10.4159    53.6629   730.8739 </r>
       <r>    10.5693    50.4593   738.6134 </r>
       <r>    10.7227    57.8486   747.4863 </r>
       <r>    10.8760    55.0453   755.9292 </r>
       <r>    11.0294    58.0796   764.8375 </r>
       <r>    11.1828    20.6057   767.9980 </r>
       <r>    11.3362     0.0130   768.0000 </r>
       <r>    11.4896     0.0000   768.0000 </r>
       <r>    11.6430     0.0000   768.0000 </r>
       <r>    11.7963     0.0000   768.0000 </r>
       <r>    11.9497     0.0000   768.0000 </r>
       <r>    12.1031     0.0000   768.0000 </r>
       <r>    12.2565     0.0000   768.0000 </r>
       <r>    12.4099     0.0000   768.0000 </r>
       <r>    12.5632     0.0000   768.0000 </r>
       <r>    12.7166     0.0000   768.0000 </r>
       <r>    12.8700     0.0000   768.0000 </r>
       <r>    13.0234     0.0000   768.0000 </r>
       <r>    13.1768     0.0000   768.0000 </r>
      </set>
     </set>
    </array>
   </total>
  </dos>
 </calculation>
 <structure name="finalpos" >
  <crystal>
   <varray name="basis" >
    <v>      11.18431424      -0.06520098      -0.00475499 </v>
    <v>      -0.06522812      11.18542696      -0.00127297 </v>
    <v>      -0.00689180      -0.00194056      16.00171729 </v>
   </varray>
   <i name="volume">   2001.76766550 </i>
   <varray name="rec_basis" >
    <v>       0.08941399       0.00052142       0.00003857 </v>
    <v>       0.00052121       0.08940508       0.00001107 </v>
    <v>       0.00002661       0.00000727       0.06249330 </v>
   </varray>
  </crystal>
  <varray name="positions" >
   <v>       0.00403732       0.24925927       0.12623423 </v>
   <v>       0.00032350       0.26144578       0.62812506 </v>
   <v>       0.00709786       0.75121909       0.12186935 </v>
   <v>       0.99615769       0.73932105       0.63471726 </v>
   <v>       0.49549037       0.24531146       0.13402893 </v>
   <v>       0.49898818       0.24238293       0.62511033 </v>
   <v>       0.48783864       0.75657642       0.12853365 </v>
   <v>       0.50477562       0.75546704       0.63344403 </v>
   <v>       0.99741399       0.25572664       0.36909163 </v>
   <v>       0.00240370       0.24812200       0.86342150 </v>
   <v>       0.99152990       0.74435067       0.36725998 </v>
   <v>       0.00362736       0.74729531       0.87729884 </v>
   <v>       0.49997394       0.24781184       0.37659894 </v>
   <v>       0.49811056       0.24014250       0.86565361 </v>
   <v>       0.50626029       0.75544123       0.37186360 </v>
   <v>       0.49805011       0.76149236       0.87396802 </v>
   <v>       0.25093017       0.99428189       0.12264943 </v>
   <v>       0.26334214       0.00023597       0.62985367 </v>
   <v>       0.24261017       0.51226774       0.13086797 </v>
   <v>       0.25088860       0.49399929       0.63562697 </v>
   <v>       0.74801122       0.99639643       0.12560882 </v>
   <v>       0.73942943       0.00027499       0.62663495 </v>
   <v>       0.75731660       0.50706440       0.13071644 </v>
   <v>       0.75173629       0.50012115       0.62703693 </v>
   <v>       0.25547194       0.00929117       0.36917721 </v>
   <v>       0.25145248       0.99671474       0.87478065 </v>
   <v>       0.24903728       0.49488125       0.37237597 </v>
   <v>       0.24484117       0.50096683       0.87549651 </v>
   <v>       0.73933421       0.00493380       0.36885337 </v>
   <v>       0.75100085       0.99753254       0.86407859 </v>
   <v>       0.75314919       0.49822798       0.37559042 </v>
   <v>       0.76162850       0.50241884       0.86881506 </v>
   <v>       0.49852034       0.00001027       0.25017897 </v>
   <v>       0.25010970       0.74898081       0.75344270 </v>
   <v>       0.25016434       0.24694909       0.50262627 </v>
   <v>       0.00016531       0.50247005       0.49956242 </v>
   <v>       0.00009282       0.49961372       0.24925043 </v>
   <v>       0.49994261       0.50077186       0.24820212 </v>
   <v>       0.75112001       0.75048083       0.50333110 </v>
   <v>       0.50201628       0.49841484       0.49603934 </v>
   <v>       0.24924030       0.24792868       0.74868100 </v>
   <v>       0.49841191       0.00377836       0.00436259 </v>
   <v>       0.74588766       0.25147002       0.50315455 </v>
   <v>       0.00364988       0.99593596       0.00423728 </v>
   <v>       0.99867598       0.99899342       0.24667307 </v>
   <v>       0.74903541       0.25075480       0.74770459 </v>
   <v>       0.00067314       0.50093937       0.00379407 </v>
   <v>       0.75021671       0.74966079       0.74988254 </v>
   <v>       0.49851343       0.99962544       0.49892178 </v>
   <v>       0.25095631       0.24839759       0.98726106 </v>
   <v>       0.00153565       0.49938880       0.75119694 </v>
   <v>       0.24838609       0.75320335       0.99523594 </v>
   <v>       0.00098013       0.99828075       0.75801425 </v>
   <v>       0.24856016       0.75133960       0.24292990 </v>
   <v>       0.50025573       0.99969078       0.74826692 </v>
   <v>       0.75076671       0.74931633       0.98844774 </v>
   <v>       0.98451449       0.01750105       0.48940228 </v>
   <v>       0.74980760       0.25138456       0.25816747 </v>
   <v>       0.48616854       0.51703766       0.00787238 </v>
   <v>       0.75016935       0.75252637       0.26111357 </v>
   <v>       0.24775580       0.24959838       0.26159048 </v>
   <v>       0.26707561       0.73238962       0.50947193 </v>
   <v>       0.76725282       0.23472110       0.99114742 </v>
   <v>       0.50027179       0.50089102       0.74048616 </v>
   <v>       0.12120580       0.13002201       0.24289682 </v>
   <v>       0.11600255       0.12711977       0.73504709 </v>
   <v>       0.12535087       0.62773101       0.26198553 </v>
   <v>       0.12048435       0.62826150       0.75821772 </v>
   <v>       0.62199401       0.13129656       0.24390203 </v>
   <v>       0.62071039       0.13029278       0.74589941 </v>
   <v>       0.62397548       0.63332226       0.23683797 </v>
   <v>       0.61856065       0.62885284       0.76395453 </v>
   <v>       0.36317260       0.38549331       0.49498378 </v>
   <v>       0.37966067       0.37141405       0.75577804 </v>
   <v>       0.37580732       0.86964700       0.26085576 </v>
   <v>       0.38016544       0.86981681       0.75440282 </v>
   <v>       0.87814505       0.36851590       0.23817376 </v>
   <v>       0.87832757       0.37161554       0.74482293 </v>
   <v>       0.87565948       0.86698324       0.23387450 </v>
   <v>       0.87939361       0.87465814       0.73731017 </v>
   <v>       0.36735511       0.12364668       0.24175962 </v>
   <v>       0.36914513       0.12014685       0.75226266 </v>
   <v>       0.37213257       0.62355635       0.26476934 </v>
   <v>       0.37220889       0.61746167       0.76483287 </v>
   <v>       0.86812923       0.12176392       0.23589619 </v>
   <v>       0.87068603       0.12060044       0.73961071 </v>
   <v>       0.86972194       0.62253176       0.24817186 </v>
   <v>       0.87137410       0.62137369       0.75131504 </v>
   <v>       0.62617810       0.38292174       0.76513824 </v>
   <v>       0.73587641       0.26286635       0.62600476 </v>
   <v>       0.12832575       0.87490286       0.27014789 </v>
   <v>       0.12654269       0.88050357       0.73213075 </v>
   <v>       0.37759204       0.13666623       0.01440220 </v>
   <v>       0.85269522       0.37437729       0.02267154 </v>
   <v>       0.63059987       0.87879013       0.74914477 </v>
   <v>       0.37882240       0.63716747       0.98160142 </v>
   <v>       0.37042569       0.88856650       0.99681869 </v>
   <v>       0.33660202       0.87983077       0.48149896 </v>
   <v>       0.13254667       0.12257482       0.01214441 </v>
   <v>       0.12921366       0.37706852       0.74988667 </v>
   <v>       0.87035144       0.87341576       0.01498385 </v>
   <v>       0.89481026       0.88232836       0.52448098 </v>
   <v>       0.25136366       0.74831482       0.12399793 </v>
   <v>       0.12571070       0.61963639       0.99465495 </v>
   <v>       0.13116639       0.64131562       0.47605416 </v>
   <v>       0.62895905       0.14961539       0.02472856 </v>
   <v>       0.63707947       0.11554210       0.49963095 </v>
   <v>       0.64050252       0.61259302       0.49292250 </v>
   <v>       0.13803574       0.37211434       0.01802161 </v>
   <v>       0.11373078       0.36549725       0.49921018 </v>
   <v>       0.11927343       0.87034576       0.99847628 </v>
   <v>       0.40460159       0.37837598       0.97139468 </v>
   <v>       0.61014175       0.36211243       0.50000950 </v>
   <v>       0.62232563       0.86284023       0.01397743 </v>
   <v>       0.61968692       0.86419516       0.50118420 </v>
   <v>       0.38281176       0.13669236       0.49841364 </v>
   <v>       0.63599154       0.59519181       0.98824259 </v>
   <v>       0.39028954       0.63032398       0.47732995 </v>
   <v>       0.88178266       0.12239403       0.01747286 </v>
   <v>       0.88370855       0.14338069       0.51538781 </v>
   <v>       0.87696316       0.62871068       0.00925668 </v>
   <v>       0.88576271       0.63595258       0.49798144 </v>
   <v>       0.01841775       0.98677145       0.12777750 </v>
   <v>       0.98107676       0.00642533       0.37244694 </v>
   <v>       0.00717935       0.51156409       0.12740395 </v>
   <v>       0.23809593       0.24248924       0.37934435 </v>
   <v>       0.49376331       0.99228731       0.12772608 </v>
   <v>       0.01370622       0.51043926       0.62074644 </v>
   <v>       0.47964588       0.50639472       0.12444401 </v>
   <v>       0.49801833       0.50979975       0.62039886 </v>
   <v>       0.37565013       0.36905764       0.24609332 </v>
   <v>       0.99705863       0.00318026       0.87836366 </v>
   <v>       0.99241769       0.48852995       0.37273668 </v>
   <v>       0.99179989       0.48096109       0.88331577 </v>
   <v>       0.50420832       0.00575591       0.37291988 </v>
   <v>       0.51839457       0.48545838       0.36902932 </v>
   <v>       0.63232868       0.37657797       0.22896420 </v>
   <v>       0.23516386       0.23760159       0.87125953 </v>
   <v>       0.49186731       0.99274662       0.62157868 </v>
   <v>       0.23756414       0.76659840       0.87231686 </v>
   <v>       0.75510582       0.25331627       0.37732548 </v>
   <v>       0.75708995       0.24339402       0.87473973 </v>
   <v>       0.76001802       0.76572645       0.37937370 </v>
   <v>       0.76233044       0.76366821       0.87257372 </v>
   <v>       0.13306004       0.09334720       0.51420713 </v>
   <v>       0.25648367       0.25634394       0.62423815 </v>
   <v>       0.86214453       0.39197809       0.50463453 </v>
   <v>       0.25995714       0.73312444       0.62619623 </v>
   <v>       0.62892459       0.87776922       0.24519939 </v>
   <v>       0.13044347       0.37651770       0.24217697 </v>
   <v>       0.51600515       0.01050524       0.88366414 </v>
   <v>       0.74108994       0.73700137       0.62580949 </v>
  </varray>
 </structure>
</modeling>
