<?xml version="1.0" encoding="ISO-8859-1"?>
<modeling>
 <generator>
  <i name="program" type="string">vasp </i>
  <i name="version" type="string">5.4.1  </i>
  <i name="subversion" type="string">05Feb16 (build Jan 25 2017 20:16:33) complex                          parallel </i>
  <i name="platform" type="string">BWXE6 </i>
  <i name="date" type="string">2019 07 01 </i>
  <i name="time" type="string">16:31:50 </i>
 </generator>
 <incar>
  <i type="string" name="SYSTEM"> STF</i>
  <i type="string" name="PREC">normal</i>
  <i type="string" name="ALGO"> Fast</i>
  <i type="int" name="ISPIN">     2</i>
  <i type="int" name="NELM">    40</i>
  <i type="int" name="NELMIN">     8</i>
  <i type="int" name="IBRION">     2</i>
  <i name="EDIFF">      0.00010000</i>
  <i name="EDIFFG">     -0.03000000</i>
  <i type="int" name="NSW">    30</i>
  <i type="int" name="ISIF">     3</i>
  <i name="ENCUT">    520.00000000</i>
  <i type="int" name="NBANDS">   768</i>
  <v name="MAGMOM">      0.60000000      0.60000000      0.60000000      0.60000000      0.60000000      0.60000000      0.60000000      0.60000000      0.60000000      0.60000000      0.60000000      0.60000000      0.60000000      0.60000000      0.60000000      0.60000000      0.60000000      0.60000000      0.60000000      0.60000000
      0.60000000      0.60000000      0.60000000      0.60000000      0.60000000      0.60000000      0.60000000      0.60000000      0.60000000      0.60000000      0.60000000      0.60000000      0.60000000      0.60000000      0.60000000      0.60000000      0.60000000      0.60000000      0.60000000      0.60000000
      5.00000000      5.00000000      5.00000000      5.00000000      5.00000000      5.00000000      5.00000000      5.00000000      5.00000000      5.00000000      5.00000000      5.00000000      5.00000000      5.00000000      5.00000000      5.00000000      5.00000000      5.00000000      5.00000000      5.00000000
      5.00000000      5.00000000      5.00000000      5.00000000      0.60000000      0.60000000      0.60000000      0.60000000      0.60000000      0.60000000      0.60000000      0.60000000      0.60000000      0.60000000      0.60000000      0.60000000      0.60000000      0.60000000      0.60000000      0.60000000
      0.60000000      0.60000000      0.60000000      0.60000000      0.60000000      0.60000000      0.60000000      0.60000000      0.60000000      0.60000000      0.60000000      0.60000000      0.60000000      0.60000000      0.60000000      0.60000000      0.60000000      0.60000000      0.60000000      0.60000000
      0.60000000      0.60000000      0.60000000      0.60000000      0.60000000      0.60000000      0.60000000      0.60000000      0.60000000      0.60000000      0.60000000      0.60000000      0.60000000      0.60000000      0.60000000      0.60000000      0.60000000      0.60000000      0.60000000      0.60000000
      0.60000000      0.60000000      0.60000000      0.60000000      0.60000000      0.60000000      0.60000000      0.60000000      0.60000000      0.60000000      0.60000000      0.60000000      0.60000000      0.60000000      0.60000000      0.60000000      0.60000000      0.60000000      0.60000000      0.60000000
      0.60000000      0.60000000      0.60000000      0.60000000      0.60000000      0.60000000      0.60000000      0.60000000</v>
  <i type="string" name="LREAL"> Auto</i>
  <i type="int" name="ISMEAR">     0</i>
  <i name="SIGMA">      0.05000000</i>
  <i type="int" name="LMAXMIX">     4</i>
  <v type="int" name="KPOINT_BSE">    -1     0     0     0</v>
  <i type="int" name="NELM">    40</i>
  <i type="logical" name="LDAU"> T  </i>
  <v type="int" name="LDAUTYPE">     2</v>
  <v type="int" name="LDAUL">     0     2     2     0</v>
  <v name="LDAUU">      0.00000000      3.00000000      5.00000000      0.00000000</v>
  <v name="LDAUJ">      0.00000000      0.00000000      0.00000000      0.00000000</v>
  <i type="int" name="LDAUPRINT">     1</i>
 </incar>
 <kpoints>
  <generation param="Monkhorst-Pack">
   <v type="int" name="divisions">       2        2        2 </v>
   <v name="usershift">      0.00000000       0.00000000       0.00000000 </v>
   <v name="genvec1">      0.50000000      -0.00000000       0.00000000 </v>
   <v name="genvec2">      0.00000000       0.50000000       0.00000000 </v>
   <v name="genvec3">      0.00000000       0.00000000       0.50000000 </v>
   <v name="shift">      0.50000000       0.50000000       0.50000000 </v>
  </generation>
  <varray name="kpointlist" >
   <v>       0.25000000       0.25000000       0.25000000 </v>
   <v>      -0.25000000       0.25000000       0.25000000 </v>
   <v>       0.25000000      -0.25000000       0.25000000 </v>
   <v>      -0.25000000      -0.25000000       0.25000000 </v>
  </varray>
  <varray name="weights" >
   <v>       0.25000000 </v>
   <v>       0.25000000 </v>
   <v>       0.25000000 </v>
   <v>       0.25000000 </v>
  </varray>
 </kpoints>
 <parameters>
  <separator name="general" >
   <i type="string" name="SYSTEM">STF</i>
   <i type="logical" name="LCOMPAT"> F  </i>
  </separator>
  <separator name="electronic" >
   <i type="string" name="PREC">normal</i>
   <i name="ENMAX">    520.00000000</i>
   <i name="ENAUG">    605.39200000</i>
   <i name="EDIFF">      0.00010000</i>
   <i type="int" name="IALGO">    68</i>
   <i type="int" name="IWAVPR">    11</i>
   <i type="int" name="NBANDS">   768</i>
   <i name="NELECT">   1048.00000000</i>
   <i type="int" name="TURBO">     0</i>
   <i type="int" name="IRESTART">     0</i>
   <i type="int" name="NREBOOT">     0</i>
   <i type="int" name="NMIN">     0</i>
   <i name="EREF">      0.00000000</i>
   <separator name="electronic smearing" >
    <i type="int" name="ISMEAR">     0</i>
    <i name="SIGMA">      0.05000000</i>
    <i name="KSPACING">      0.50000000</i>
    <i type="logical" name="KGAMMA"> T  </i>
   </separator>
   <separator name="electronic projectors" >
    <i type="logical" name="LREAL"> T  </i>
    <v name="ROPT">     -0.00050000     -0.00050000     -0.00050000     -0.00050000</v>
    <i type="int" name="LMAXPAW">  -100</i>
    <i type="int" name="LMAXMIX">     4</i>
    <i type="logical" name="NLSPLINE"> F  </i>
   </separator>
   <separator name="electronic startup" >
    <i type="int" name="ISTART">     1</i>
    <i type="int" name="ICHARG">     0</i>
    <i type="int" name="INIWAV">     1</i>
   </separator>
   <separator name="electronic spin" >
    <i type="int" name="ISPIN">     2</i>
    <i type="logical" name="LNONCOLLINEAR"> F  </i>
    <v name="MAGMOM">      0.60000000      0.60000000      0.60000000      0.60000000      0.60000000      0.60000000      0.60000000      0.60000000      0.60000000      0.60000000      0.60000000      0.60000000      0.60000000      0.60000000      0.60000000      0.60000000      0.60000000      0.60000000      0.60000000      0.60000000
      0.60000000      0.60000000      0.60000000      0.60000000      0.60000000      0.60000000      0.60000000      0.60000000      0.60000000      0.60000000      0.60000000      0.60000000      0.60000000      0.60000000      0.60000000      0.60000000      0.60000000      0.60000000      0.60000000      0.60000000
      5.00000000      5.00000000      5.00000000      5.00000000      5.00000000      5.00000000      5.00000000      5.00000000      5.00000000      5.00000000      5.00000000      5.00000000      5.00000000      5.00000000      5.00000000      5.00000000      5.00000000      5.00000000      5.00000000      5.00000000
      5.00000000      5.00000000      5.00000000      5.00000000      0.60000000      0.60000000      0.60000000      0.60000000      0.60000000      0.60000000      0.60000000      0.60000000      0.60000000      0.60000000      0.60000000      0.60000000      0.60000000      0.60000000      0.60000000      0.60000000
      0.60000000      0.60000000      0.60000000      0.60000000      0.60000000      0.60000000      0.60000000      0.60000000      0.60000000      0.60000000      0.60000000      0.60000000      0.60000000      0.60000000      0.60000000      0.60000000      0.60000000      0.60000000      0.60000000      0.60000000
      0.60000000      0.60000000      0.60000000      0.60000000      0.60000000      0.60000000      0.60000000      0.60000000      0.60000000      0.60000000      0.60000000      0.60000000      0.60000000      0.60000000      0.60000000      0.60000000      0.60000000      0.60000000      0.60000000      0.60000000
      0.60000000      0.60000000      0.60000000      0.60000000      0.60000000      0.60000000      0.60000000      0.60000000      0.60000000      0.60000000      0.60000000      0.60000000      0.60000000      0.60000000      0.60000000      0.60000000      0.60000000      0.60000000      0.60000000      0.60000000
      0.60000000      0.60000000      0.60000000      0.60000000      0.60000000      0.60000000      0.60000000      0.60000000</v>
    <i name="NUPDOWN">     -1.00000000</i>
    <i type="logical" name="LSORBIT"> F  </i>
    <v name="SAXIS">      0.00000000      0.00000000      1.00000000</v>
    <i type="logical" name="LSPIRAL"> F  </i>
    <v name="QSPIRAL">      0.00000000      0.00000000      0.00000000</v>
    <i type="logical" name="LZEROZ"> F  </i>
   </separator>
   <separator name="electronic exchange-correlation" >
    <i type="logical" name="LASPH"> F  </i>
    <i type="logical" name="LMETAGGA"> F  </i>
   </separator>
   <separator name="electronic convergence" >
    <i type="int" name="NELM">    40</i>
    <i type="int" name="NELMDL">     0</i>
    <i type="int" name="NELMIN">     8</i>
    <i name="ENINI">    520.00000000</i>
    <separator name="electronic convergence detail" >
     <i type="logical" name="LDIAG"> T  </i>
     <i type="logical" name="LSUBROT"> F  </i>
     <i name="WEIMIN">      0.00100000</i>
     <i name="EBREAK">      0.00000003</i>
     <i name="DEPER">      0.30000000</i>
     <i type="int" name="NRMM">     4</i>
     <i name="TIME">      0.40000000</i>
    </separator>
   </separator>
   <separator name="electronic mixer" >
    <i name="AMIX">      0.40000000</i>
    <i name="BMIX">      1.00000000</i>
    <i name="AMIN">      0.10000000</i>
    <i name="AMIX_MAG">      1.60000000</i>
    <i name="BMIX_MAG">      1.00000000</i>
    <separator name="electronic mixer details" >
     <i type="int" name="IMIX">     4</i>
     <i type="logical" name="MIXFIRST"> F  </i>
     <i type="int" name="MAXMIX">   -45</i>
     <i name="WC">    100.00000000</i>
     <i type="int" name="INIMIX">     1</i>
     <i type="int" name="MIXPRE">     1</i>
     <i type="int" name="MREMOVE">     5</i>
    </separator>
   </separator>
   <separator name="electronic dipolcorrection" >
    <i type="logical" name="LDIPOL"> F  </i>
    <i type="logical" name="LMONO"> F  </i>
    <i type="int" name="IDIPOL">     0</i>
    <i name="EPSILON">      1.00000000</i>
    <v name="DIPOL">   -100.00000000   -100.00000000   -100.00000000</v>
    <i name="EFIELD">      0.00000000</i>
   </separator>
  </separator>
  <separator name="grids" >
   <i type="int" name="NGX">    64</i>
   <i type="int" name="NGY">    64</i>
   <i type="int" name="NGZ">    90</i>
   <i type="int" name="NGXF">   128</i>
   <i type="int" name="NGYF">   128</i>
   <i type="int" name="NGZF">   180</i>
   <i type="logical" name="ADDGRID"> F  </i>
  </separator>
  <separator name="ionic" >
   <i type="int" name="NSW">    30</i>
   <i type="int" name="IBRION">     2</i>
   <i type="int" name="ISIF">     3</i>
   <i name="PSTRESS">      0.00000000</i>
   <i name="EDIFFG">     -0.03000000</i>
   <i type="int" name="NFREE">     1</i>
   <i name="POTIM">      0.50000000</i>
   <i name="SMASS">     -3.00000000</i>
   <i name="SCALEE">      1.00000000</i>
  </separator>
  <separator name="ionic md" >
   <i name="TEBEG">      0.00010000</i>
   <i name="TEEND">      0.00010000</i>
   <i type="int" name="NBLOCK">     1</i>
   <i type="int" name="KBLOCK">    30</i>
   <i type="int" name="NPACO">   256</i>
   <i name="APACO">     16.00000000</i>
  </separator>
  <separator name="symmetry" >
   <i type="int" name="ISYM">     2</i>
   <i name="SYMPREC">      0.00001000</i>
  </separator>
  <separator name="dos" >
   <i type="logical" name="LORBIT"> F  </i>
   <v name="RWIGS">     -1.00000000     -1.00000000     -1.00000000     -1.00000000</v>
   <i type="int" name="NEDOS">   301</i>
   <i name="EMIN">     10.00000000</i>
   <i name="EMAX">    -10.00000000</i>
   <i name="EFERMI">      0.00000000</i>
  </separator>
  <separator name="writing" >
   <i type="int" name="NWRITE">     2</i>
   <i type="logical" name="LWAVE"> T  </i>
   <i type="logical" name="LCHARG"> T  </i>
   <i type="logical" name="LPARD"> F  </i>
   <i type="logical" name="LVTOT"> F  </i>
   <i type="logical" name="LVHAR"> F  </i>
   <i type="logical" name="LELF"> F  </i>
   <i type="logical" name="LOPTICS"> F  </i>
   <v name="STM">      0.00000000      0.00000000      0.00000000      0.00000000      0.00000000      0.00000000      0.00000000</v>
  </separator>
  <separator name="performance" >
   <i type="int" name="NPAR">     2</i>
   <i type="int" name="NSIM">     4</i>
   <i type="int" name="NBLK">    -1</i>
   <i type="logical" name="LPLANE"> T  </i>
   <i type="logical" name="LSCALAPACK"> T  </i>
   <i type="logical" name="LSCAAWARE"> F  </i>
   <i type="logical" name="LSCALU"> F  </i>
   <i type="logical" name="LASYNC"> F  </i>
   <i type="logical" name="LORBITALREAL"> F  </i>
  </separator>
  <separator name="miscellaneous" >
   <i type="int" name="IDIOT">     3</i>
   <i type="logical" name="LMUSIC"> F  </i>
   <v name="POMASS">     87.62000000     47.88000000     55.84700000     16.00000000</v>
   <v name="DARWINR">      0.00000000      0.00000000      0.00000000      0.00000000</v>
   <v name="DARWINV">      1.00000000      1.00000000      1.00000000      1.00000000</v>
   <i type="logical" name="LCORR"> T  </i>
  </separator>
  <i type="logical" name="GGA_COMPAT"> T  </i>
  <i type="logical" name="LBERRY"> F  </i>
  <i type="int" name="ICORELEVEL">     0</i>
  <i type="logical" name="LDAU"> T  </i>
  <v type="int" name="LDAUTYPE">     2</v>
  <v type="int" name="LDAUL">     0</v>
  <v name="LDAUU">      0.00000000</v>
  <v name="LDAUJ">      0.00000000</v>
  <i type="int" name="LDAUPRINT">     1</i>
  <i type="int" name="I_CONSTRAINED_M">     0</i>
  <separator name="electronic exchange-correlation" >
   <i type="string" name="GGA">--</i>
   <i type="int" name="VOSKOWN">     0</i>
   <i type="logical" name="LHFCALC"> F  </i>
   <i type="string" name="PRECFOCK"></i>
   <i type="logical" name="LSYMGRAD"> F  </i>
   <i type="logical" name="LHFONE"> F  </i>
   <i type="logical" name="LRHFCALC"> F  </i>
   <i type="logical" name="LTHOMAS"> F  </i>
   <i type="logical" name="LMODELHF"> F  </i>
   <i name="ENCUT4O">     -1.00000000</i>
   <i type="int" name="EXXOEP">     0</i>
   <i type="int" name="FOURORBIT">     0</i>
   <i name="AEXX">      0.00000000</i>
   <i name="HFALPHA">      0.00000000</i>
   <i name="MCALPHA">      0.00000000</i>
   <i name="ALDAX">      1.00000000</i>
   <i name="AGGAX">      1.00000000</i>
   <i name="ALDAC">      1.00000000</i>
   <i name="AGGAC">      1.00000000</i>
   <i type="int" name="NKREDX">     1</i>
   <i type="int" name="NKREDY">     1</i>
   <i type="int" name="NKREDZ">     1</i>
   <i type="logical" name="SHIFTRED"> F  </i>
   <i type="logical" name="ODDONLY"> F  </i>
   <i type="logical" name="EVENONLY"> F  </i>
   <i type="int" name="LMAXFOCK">     0</i>
   <i type="int" name="NMAXFOCKAE">     0</i>
   <i type="logical" name="LFOCKAEDFT"> F  </i>
   <i name="HFSCREEN">      0.00000000</i>
   <i name="HFSCREENC">      0.00000000</i>
   <i type="int" name="NBANDSGWLOW">     0</i>
  </separator>
  <separator name="vdW DFT" >
   <i type="logical" name="LUSE_VDW"> F  </i>
   <i name="Zab_VDW">     -0.84910000</i>
   <i name="PARAM1">      0.12340000</i>
   <i name="PARAM2">      1.00000000</i>
   <i name="PARAM3">      0.00000000</i>
  </separator>
  <separator name="model GW" >
   <i type="int" name="MODEL_GW">     0</i>
   <i name="MODEL_EPS0">      8.09531671</i>
   <i name="MODEL_ALPHA">      1.00000000</i>
  </separator>
  <separator name="linear response parameters" >
   <i type="logical" name="LEPSILON"> F  </i>
   <i type="logical" name="LRPA"> F  </i>
   <i type="logical" name="LNABLA"> F  </i>
   <i type="logical" name="LVEL"> F  </i>
   <i type="int" name="KINTER">     0</i>
   <i name="CSHIFT">      0.10000000</i>
   <i name="OMEGAMAX">     -1.00000000</i>
   <i name="DEG_THRESHOLD">      0.00200000</i>
  </separator>
  <separator name="orbital magnetization" >
   <i type="logical" name="NUCIND"> F  </i>
   <v name="MAGPOS">      0.00000000      0.00000000      0.00000000</v>
   <i type="logical" name="LNICSALL"> T  </i>
   <i type="logical" name="ORBITALMAG"> F  </i>
   <i type="logical" name="LMAGBLOCH"> F  </i>
   <i type="logical" name="LCHIMAG"> F  </i>
   <i type="logical" name="LGAUGE"> T  </i>
   <i type="int" name="MAGATOM">     0</i>
   <v name="MAGDIPOL">      0.00000000      0.00000000      0.00000000</v>
   <v name="AVECCONST">      0.00000000      0.00000000      0.00000000</v>
  </separator>
  <separator name="response functions" >
   <i type="logical" name="LADDER"> F  </i>
   <i type="logical" name="LFXC"> F  </i>
   <i type="logical" name="LHARTREE"> T  </i>
   <i type="int" name="IBSE">     0</i>
   <v type="int" name="KPOINT">    -1     0     0     0</v>
   <i type="logical" name="LTCTE"> F  </i>
   <i type="logical" name="LTETE"> F  </i>
   <i type="logical" name="LTRIPLET"> F  </i>
   <i type="logical" name="LFXCEPS"> F  </i>
   <i type="logical" name="LFXHEG"> F  </i>
   <i type="int" name="NATURALO">     0</i>
   <i type="logical" name="L2ORDER"> F  </i>
   <i type="logical" name="LUSEW"> F  </i>
   <i name="ENCUTGW">     -2.00000000</i>
   <i name="ENCUTGWSOFT">     -2.00000000</i>
   <i name="ENCUTLF">     -1.00000000</i>
   <i type="int" name="LMAXMP2">    -1</i>
   <i name="SCISSOR">      0.00000000</i>
   <i type="int" name="NOMEGA">     0</i>
   <i type="int" name="NOMEGAR">     0</i>
   <i type="int" name="NBANDSGW">    -1</i>
   <i type="int" name="NBANDSO">    -1</i>
   <i type="int" name="NBANDSV">    -1</i>
   <i type="int" name="NELM">    40</i>
   <i type="int" name="NELMHF">     1</i>
   <i type="int" name="DIM">     3</i>
   <i type="int" name="ANTIRES">     0</i>
   <i name="OMEGAMAX">    -30.00000000</i>
   <i name="OMEGAMIN">    -30.00000000</i>
   <i name="OMEGATL">   -200.00000000</i>
   <i type="int" name="OMEGAGRID">     0</i>
   <i name="CSHIFT">     -0.10000000</i>
   <i type="logical" name="SELFENERGY"> F  </i>
   <i type="logical" name="LSPECTRAL"> F  </i>
   <i type="logical" name="LSPECTRALGW"> F  </i>
   <i type="logical" name="LSINGLES"> F  </i>
   <i type="logical" name="LFERMIGW"> F  </i>
   <i type="logical" name="ODDONLYGW"> F  </i>
   <i type="logical" name="EVENONLYGW"> F  </i>
   <i type="int" name="NKREDLFX">     1</i>
   <i type="int" name="NKREDLFY">     1</i>
   <i type="int" name="NKREDLFZ">     1</i>
   <i type="int" name="MAXMEM">  1800</i>
   <i type="int" name="TELESCOPE">     0</i>
   <i type="int" name="TAUPAR">     1</i>
   <i type="int" name="OMEGAPAR">    -1</i>
   <i name="LAMBDA">      1.00000000</i>
  </separator>
  <separator name="External order field" >
   <i name="OFIELD_KAPPA">      0.00000000</i>
   <v name="OFIELD_K">      0.00000000      0.00000000      0.00000000</v>
   <i name="OFIELD_Q6_NEAR">      0.00000000</i>
   <i name="OFIELD_Q6_FAR">      0.00000000</i>
   <i name="OFIELD_A">      0.00000000</i>
  </separator>
 </parameters>
 <atominfo>
  <atoms>     148 </atoms>
  <types>       4 </types>
  <array name="atoms" >
   <dimension dim="1">ion</dimension>
   <field type="string">element</field>
   <field type="int">atomtype</field>
   <set>
    <rc><c>Sr</c><c>   1</c></rc>
    <rc><c>Sr</c><c>   1</c></rc>
    <rc><c>Sr</c><c>   1</c></rc>
    <rc><c>Sr</c><c>   1</c></rc>
    <rc><c>Sr</c><c>   1</c></rc>
    <rc><c>Sr</c><c>   1</c></rc>
    <rc><c>Sr</c><c>   1</c></rc>
    <rc><c>Sr</c><c>   1</c></rc>
    <rc><c>Sr</c><c>   1</c></rc>
    <rc><c>Sr</c><c>   1</c></rc>
    <rc><c>Sr</c><c>   1</c></rc>
    <rc><c>Sr</c><c>   1</c></rc>
    <rc><c>Sr</c><c>   1</c></rc>
    <rc><c>Sr</c><c>   1</c></rc>
    <rc><c>Sr</c><c>   1</c></rc>
    <rc><c>Sr</c><c>   1</c></rc>
    <rc><c>Sr</c><c>   1</c></rc>
    <rc><c>Sr</c><c>   1</c></rc>
    <rc><c>Sr</c><c>   1</c></rc>
    <rc><c>Sr</c><c>   1</c></rc>
    <rc><c>Sr</c><c>   1</c></rc>
    <rc><c>Sr</c><c>   1</c></rc>
    <rc><c>Sr</c><c>   1</c></rc>
    <rc><c>Sr</c><c>   1</c></rc>
    <rc><c>Sr</c><c>   1</c></rc>
    <rc><c>Sr</c><c>   1</c></rc>
    <rc><c>Sr</c><c>   1</c></rc>
    <rc><c>Sr</c><c>   1</c></rc>
    <rc><c>Sr</c><c>   1</c></rc>
    <rc><c>Sr</c><c>   1</c></rc>
    <rc><c>Sr</c><c>   1</c></rc>
    <rc><c>Sr</c><c>   1</c></rc>
    <rc><c>Ti</c><c>   2</c></rc>
    <rc><c>Ti</c><c>   2</c></rc>
    <rc><c>Ti</c><c>   2</c></rc>
    <rc><c>Ti</c><c>   2</c></rc>
    <rc><c>Ti</c><c>   2</c></rc>
    <rc><c>Ti</c><c>   2</c></rc>
    <rc><c>Ti</c><c>   2</c></rc>
    <rc><c>Ti</c><c>   2</c></rc>
    <rc><c>Fe</c><c>   3</c></rc>
    <rc><c>Fe</c><c>   3</c></rc>
    <rc><c>Fe</c><c>   3</c></rc>
    <rc><c>Fe</c><c>   3</c></rc>
    <rc><c>Fe</c><c>   3</c></rc>
    <rc><c>Fe</c><c>   3</c></rc>
    <rc><c>Fe</c><c>   3</c></rc>
    <rc><c>Fe</c><c>   3</c></rc>
    <rc><c>Fe</c><c>   3</c></rc>
    <rc><c>Fe</c><c>   3</c></rc>
    <rc><c>Fe</c><c>   3</c></rc>
    <rc><c>Fe</c><c>   3</c></rc>
    <rc><c>Fe</c><c>   3</c></rc>
    <rc><c>Fe</c><c>   3</c></rc>
    <rc><c>Fe</c><c>   3</c></rc>
    <rc><c>Fe</c><c>   3</c></rc>
    <rc><c>Fe</c><c>   3</c></rc>
    <rc><c>Fe</c><c>   3</c></rc>
    <rc><c>Fe</c><c>   3</c></rc>
    <rc><c>Fe</c><c>   3</c></rc>
    <rc><c>Fe</c><c>   3</c></rc>
    <rc><c>Fe</c><c>   3</c></rc>
    <rc><c>Fe</c><c>   3</c></rc>
    <rc><c>Fe</c><c>   3</c></rc>
    <rc><c>O </c><c>   4</c></rc>
    <rc><c>O </c><c>   4</c></rc>
    <rc><c>O </c><c>   4</c></rc>
    <rc><c>O </c><c>   4</c></rc>
    <rc><c>O </c><c>   4</c></rc>
    <rc><c>O </c><c>   4</c></rc>
    <rc><c>O </c><c>   4</c></rc>
    <rc><c>O </c><c>   4</c></rc>
    <rc><c>O </c><c>   4</c></rc>
    <rc><c>O </c><c>   4</c></rc>
    <rc><c>O </c><c>   4</c></rc>
    <rc><c>O </c><c>   4</c></rc>
    <rc><c>O </c><c>   4</c></rc>
    <rc><c>O </c><c>   4</c></rc>
    <rc><c>O </c><c>   4</c></rc>
    <rc><c>O </c><c>   4</c></rc>
    <rc><c>O </c><c>   4</c></rc>
    <rc><c>O </c><c>   4</c></rc>
    <rc><c>O </c><c>   4</c></rc>
    <rc><c>O </c><c>   4</c></rc>
    <rc><c>O </c><c>   4</c></rc>
    <rc><c>O </c><c>   4</c></rc>
    <rc><c>O </c><c>   4</c></rc>
    <rc><c>O </c><c>   4</c></rc>
    <rc><c>O </c><c>   4</c></rc>
    <rc><c>O </c><c>   4</c></rc>
    <rc><c>O </c><c>   4</c></rc>
    <rc><c>O </c><c>   4</c></rc>
    <rc><c>O </c><c>   4</c></rc>
    <rc><c>O </c><c>   4</c></rc>
    <rc><c>O </c><c>   4</c></rc>
    <rc><c>O </c><c>   4</c></rc>
    <rc><c>O </c><c>   4</c></rc>
    <rc><c>O </c><c>   4</c></rc>
    <rc><c>O </c><c>   4</c></rc>
    <rc><c>O </c><c>   4</c></rc>
    <rc><c>O </c><c>   4</c></rc>
    <rc><c>O </c><c>   4</c></rc>
    <rc><c>O </c><c>   4</c></rc>
    <rc><c>O </c><c>   4</c></rc>
    <rc><c>O </c><c>   4</c></rc>
    <rc><c>O </c><c>   4</c></rc>
    <rc><c>O </c><c>   4</c></rc>
    <rc><c>O </c><c>   4</c></rc>
    <rc><c>O </c><c>   4</c></rc>
    <rc><c>O </c><c>   4</c></rc>
    <rc><c>O </c><c>   4</c></rc>
    <rc><c>O </c><c>   4</c></rc>
    <rc><c>O </c><c>   4</c></rc>
    <rc><c>O </c><c>   4</c></rc>
    <rc><c>O </c><c>   4</c></rc>
    <rc><c>O </c><c>   4</c></rc>
    <rc><c>O </c><c>   4</c></rc>
    <rc><c>O </c><c>   4</c></rc>
    <rc><c>O </c><c>   4</c></rc>
    <rc><c>O </c><c>   4</c></rc>
    <rc><c>O </c><c>   4</c></rc>
    <rc><c>O </c><c>   4</c></rc>
    <rc><c>O </c><c>   4</c></rc>
    <rc><c>O </c><c>   4</c></rc>
    <rc><c>O </c><c>   4</c></rc>
    <rc><c>O </c><c>   4</c></rc>
    <rc><c>O </c><c>   4</c></rc>
    <rc><c>O </c><c>   4</c></rc>
    <rc><c>O </c><c>   4</c></rc>
    <rc><c>O </c><c>   4</c></rc>
    <rc><c>O </c><c>   4</c></rc>
    <rc><c>O </c><c>   4</c></rc>
    <rc><c>O </c><c>   4</c></rc>
    <rc><c>O </c><c>   4</c></rc>
    <rc><c>O </c><c>   4</c></rc>
    <rc><c>O </c><c>   4</c></rc>
    <rc><c>O </c><c>   4</c></rc>
    <rc><c>O </c><c>   4</c></rc>
    <rc><c>O </c><c>   4</c></rc>
    <rc><c>O </c><c>   4</c></rc>
    <rc><c>O </c><c>   4</c></rc>
    <rc><c>O </c><c>   4</c></rc>
    <rc><c>O </c><c>   4</c></rc>
    <rc><c>O </c><c>   4</c></rc>
    <rc><c>O </c><c>   4</c></rc>
    <rc><c>O </c><c>   4</c></rc>
    <rc><c>O </c><c>   4</c></rc>
    <rc><c>O </c><c>   4</c></rc>
   </set>
  </array>
  <array name="atomtypes" >
   <dimension dim="1">type</dimension>
   <field type="int">atomspertype</field>
   <field type="string">element</field>
   <field>mass</field>
   <field>valence</field>
   <field type="string">pseudopotential</field>
   <set>
    <rc><c>  32</c><c>Sr</c><c>     87.62000000</c><c>     10.00000000</c><c>  PAW_PBE Sr_sv 07Sep2000               </c></rc>
    <rc><c>   8</c><c>Ti</c><c>     47.88000000</c><c>      4.00000000</c><c>  PAW_PBE Ti 08Apr2002                  </c></rc>
    <rc><c>  24</c><c>Fe</c><c>     55.84700000</c><c>      8.00000000</c><c>  PAW_PBE Fe 06Sep2000                  </c></rc>
    <rc><c>  84</c><c>O </c><c>     16.00000000</c><c>      6.00000000</c><c>  PAW_PBE O 08Apr2002                   </c></rc>
   </set>
  </array>
 </atominfo>
 <structure name="initialpos" >
  <crystal>
   <varray name="basis" >
    <v>      11.25536799      -0.05683712       0.00671160 </v>
    <v>      -0.05690144      11.22290315      -0.00928058 </v>
    <v>       0.01016672      -0.01335853      15.80851160 </v>
   </varray>
   <i name="volume">   1996.84478767 </i>
   <varray name="rec_basis" >
    <v>       0.08884880       0.00045043      -0.00005676 </v>
    <v>       0.00044992       0.08910585       0.00007501 </v>
    <v>      -0.00003746       0.00005212       0.06325713 </v>
   </varray>
  </crystal>
  <varray name="positions" >
   <v>       0.98505900       0.25616558       0.12492405 </v>
   <v>       0.99860378       0.23094032       0.62300691 </v>
   <v>       0.98850805       0.74165877       0.12836867 </v>
   <v>       0.99832285       0.75768925       0.62255026 </v>
   <v>       0.51458321       0.24701976       0.12459009 </v>
   <v>       0.49864638       0.24295591       0.63356199 </v>
   <v>       0.51760607       0.76160897       0.13281500 </v>
   <v>       0.50001242       0.75480973       0.62666845 </v>
   <v>       0.99502481       0.25057380       0.36900203 </v>
   <v>       0.00273427       0.25143117       0.88202317 </v>
   <v>       0.00728122       0.75170733       0.36566327 </v>
   <v>       0.98328560       0.75417847       0.87968222 </v>
   <v>       0.49887486       0.24829206       0.37505209 </v>
   <v>       0.49081002       0.24614727       0.87489072 </v>
   <v>       0.49808020       0.76155248       0.37643024 </v>
   <v>       0.51029142       0.74403603       0.87490793 </v>
   <v>       0.25331596       0.99085878       0.12370785 </v>
   <v>       0.25341981       0.99755601       0.62101694 </v>
   <v>       0.22853313       0.49569142       0.13407927 </v>
   <v>       0.25524104       0.51031858       0.62875817 </v>
   <v>       0.75255653       0.99462049       0.12449466 </v>
   <v>       0.74392685       0.98113053       0.62486594 </v>
   <v>       0.76013911       0.50627531       0.12525503 </v>
   <v>       0.73485173       0.51115184       0.62906272 </v>
   <v>       0.25335579       0.97965477       0.37599118 </v>
   <v>       0.24703866       0.00856731       0.86925931 </v>
   <v>       0.25071584       0.51327235       0.36271574 </v>
   <v>       0.24878511       0.50030341       0.88706882 </v>
   <v>       0.74525686       0.99550822       0.37304660 </v>
   <v>       0.75218882       0.98534879       0.87839772 </v>
   <v>       0.74948178       0.50110693       0.36350200 </v>
   <v>       0.75208159       0.50736643       0.87742899 </v>
   <v>       0.00286706       0.99721891       0.49399933 </v>
   <v>       0.00394686       0.50352249       0.49061770 </v>
   <v>       0.49969532       0.99784779       0.99808863 </v>
   <v>       0.48542137       0.49228984       0.49597696 </v>
   <v>       0.24216817       0.24525908       0.48548037 </v>
   <v>       0.75233733       0.25549996       0.51121514 </v>
   <v>       0.74069392       0.24280084       0.75616450 </v>
   <v>       0.00406037       0.99915159       0.75018555 </v>
   <v>       0.98819493       0.99669535       0.00351730 </v>
   <v>       0.99505476       0.49372373       0.00468096 </v>
   <v>       0.49922077       0.00093638       0.50112778 </v>
   <v>       0.51077506       0.48305139       0.99011923 </v>
   <v>       0.26271690       0.26282792       0.01227943 </v>
   <v>       0.24179529       0.77271013       0.98559264 </v>
   <v>       0.25588786       0.75348984       0.50552958 </v>
   <v>       0.75519485       0.24801436       0.99587652 </v>
   <v>       0.74884044       0.74724296       0.00329570 </v>
   <v>       0.75934552       0.75874772       0.49694381 </v>
   <v>       0.25068636       0.26616846       0.24402598 </v>
   <v>       0.24484756       0.25167039       0.75887111 </v>
   <v>       0.25263382       0.75191770       0.25622831 </v>
   <v>       0.24123233       0.74221206       0.74682236 </v>
   <v>       0.74831786       0.24878505       0.23877749 </v>
   <v>       0.74880755       0.74241226       0.25252711 </v>
   <v>       0.73803558       0.74922228       0.75090456 </v>
   <v>       0.98889560       0.99125950       0.25027610 </v>
   <v>       0.99692642       0.50014966       0.24843552 </v>
   <v>       0.01711135       0.50337320       0.76251727 </v>
   <v>       0.51237005       0.99451171       0.25279371 </v>
   <v>       0.50303003       0.00475987       0.75313806 </v>
   <v>       0.50251825       0.50340086       0.25541289 </v>
   <v>       0.49436007       0.50037343       0.74743255 </v>
   <v>       0.12537585       0.12977496       0.73327305 </v>
   <v>       0.12821664       0.63521313       0.23868791 </v>
   <v>       0.11279032       0.63386991       0.73142659 </v>
   <v>       0.62033864       0.13813667       0.26738020 </v>
   <v>       0.62521307       0.12397440       0.76542666 </v>
   <v>       0.62203876       0.61839533       0.23175868 </v>
   <v>       0.62210039       0.61926620       0.75172914 </v>
   <v>       0.39193953       0.37092439       0.24902911 </v>
   <v>       0.36374606       0.36670337       0.72574015 </v>
   <v>       0.37231773       0.88316484       0.24316632 </v>
   <v>       0.86855156       0.37069282       0.26164346 </v>
   <v>       0.87441247       0.87012767       0.26493113 </v>
   <v>       0.88083807       0.86641744       0.75445659 </v>
   <v>       0.36778539       0.11714475       0.74812290 </v>
   <v>       0.37445910       0.62365323       0.22480553 </v>
   <v>       0.37430939       0.62814221       0.74370765 </v>
   <v>       0.87152528       0.12852945       0.26439808 </v>
   <v>       0.87452236       0.13176485       0.74676004 </v>
   <v>       0.87411577       0.62290691       0.25418690 </v>
   <v>       0.86736321       0.55961064       0.74099318 </v>
   <v>       0.11399611       0.37301405       0.25625906 </v>
   <v>       0.10497593       0.37122586       0.72335524 </v>
   <v>       0.13159826       0.88311503       0.24237142 </v>
   <v>       0.13611616       0.88705515       0.74754224 </v>
   <v>       0.62927844       0.37935002       0.24408397 </v>
   <v>       0.62339254       0.36878035       0.75078993 </v>
   <v>       0.62755215       0.87481776       0.25830590 </v>
   <v>       0.61389754       0.87063806       0.75396269 </v>
   <v>       0.37077598       0.39931080       0.03049360 </v>
   <v>       0.35839105       0.38554263       0.48899527 </v>
   <v>       0.37827955       0.85246736       0.02633380 </v>
   <v>       0.36881194       0.88788362       0.49378016 </v>
   <v>       0.86609229       0.38175408       0.00712106 </v>
   <v>       0.87554767       0.37298072       0.47974620 </v>
   <v>       0.87195386       0.87899822       0.99568259 </v>
   <v>       0.87783670       0.87713008       0.47932591 </v>
   <v>       0.12770426       0.12554322       0.51664736 </v>
   <v>       0.17153864       0.62709596       0.01427949 </v>
   <v>       0.12718281       0.61763446       0.52256758 </v>
   <v>       0.62216036       0.11895802       0.97560812 </v>
   <v>       0.62649465       0.13838612       0.49985275 </v>
   <v>       0.59977163       0.62175824       0.01348315 </v>
   <v>       0.11810667       0.35127951       0.01178359 </v>
   <v>       0.11964979       0.36850022       0.51539070 </v>
   <v>       0.13089899       0.89572234       0.00436810 </v>
   <v>       0.11976704       0.87271224       0.49820004 </v>
   <v>       0.61761762       0.36138208       0.00222495 </v>
   <v>       0.63042883       0.38177200       0.48263293 </v>
   <v>       0.62212947       0.87654003       0.99951556 </v>
   <v>       0.62233123       0.87496001       0.49462312 </v>
   <v>       0.36576780       0.12158784       0.99477526 </v>
   <v>       0.36828265       0.15038650       0.52363807 </v>
   <v>       0.39737828       0.63782737       0.50452213 </v>
   <v>       0.88996527       0.13494491       0.99294824 </v>
   <v>       0.86927487       0.13149314       0.48827768 </v>
   <v>       0.88320316       0.63025633       0.99856507 </v>
   <v>       0.87811421       0.61357771       0.51610955 </v>
   <v>       0.00327779       0.02479365       0.12915982 </v>
   <v>       0.98073589       0.99369818       0.61974151 </v>
   <v>       0.99625204       0.50259708       0.12690804 </v>
   <v>       0.50715700       0.02189183       0.12740868 </v>
   <v>       0.50068145       0.99534790       0.62961259 </v>
   <v>       0.51445594       0.49818658       0.61486085 </v>
   <v>       0.02973960       0.02266410       0.37120232 </v>
   <v>       0.01545602       0.01464860       0.87355182 </v>
   <v>       0.02056877       0.52070431       0.37645669 </v>
   <v>       0.02273974       0.49640210       0.88073561 </v>
   <v>       0.47620215       0.02426006       0.37272894 </v>
   <v>       0.46838281       0.97155680       0.87353985 </v>
   <v>       0.50484047       0.52469384       0.37562042 </v>
   <v>       0.47307762       0.49149826       0.87502271 </v>
   <v>       0.24741792       0.21984392       0.36898553 </v>
   <v>       0.24470545       0.26163962       0.87929362 </v>
   <v>       0.25080015       0.73692299       0.37669148 </v>
   <v>       0.27013834       0.76124356       0.86849588 </v>
   <v>       0.77971393       0.28116514       0.86704600 </v>
   <v>       0.72465442       0.71493264       0.38402339 </v>
   <v>       0.74995302       0.73867846       0.87529397 </v>
   <v>       0.23836640       0.20837487       0.13036584 </v>
   <v>       0.27199018       0.77460417       0.62923679 </v>
   <v>       0.74480126       0.22612138       0.12096832 </v>
   <v>       0.76665824       0.27488040       0.62897974 </v>
   <v>       0.75653797       0.75773676       0.12656308 </v>
   <v>       0.74286905       0.74837289       0.62107857 </v>
  </varray>
 </structure>
 <calculation>
  <scstep>
   <time name="dav">  594.60  594.58</time>
   <time name="total">  601.85  601.89</time>
   <energy>
    <i name="alphaZ">   5627.58665258 </i>
    <i name="ewald"> -62965.47546164 </i>
    <i name="hartreedc"> -18759.43475764 </i>
    <i name="XCdc">   3406.52551247 </i>
    <i name="pawpsdc"> 116558.69264809 </i>
    <i name="pawaedc">-116064.24508341 </i>
    <i name="eentropy">     -0.00005832 </i>
    <i name="bandstr">  -7109.59583054 </i>
    <i name="atom">  78316.90445604 </i>
    <i name="e_fr_energy">   -989.04192237 </i>
    <i name="e_wo_entrp">   -989.04186405 </i>
    <i name="e_0_energy">   -989.04189321 </i>
   </energy>
  </scstep>
  <scstep>
   <time name="diag">   64.64   64.64</time>
   <time name="diis">   62.33   62.36</time>
   <time name="orth">   33.39   33.42</time>
   <time name="total">  167.55  167.71</time>
   <energy>
    <i name="e_fr_energy">   -989.04192151 </i>
    <i name="e_wo_entrp">   -989.04186225 </i>
    <i name="e_0_energy">   -989.04189188 </i>
   </energy>
  </scstep>
  <scstep>
   <time name="diag">   64.50   64.50</time>
   <time name="diis">   60.09   60.11</time>
   <time name="orth">   33.31   33.31</time>
   <time name="total">  165.14  165.19</time>
   <energy>
    <i name="e_fr_energy">   -989.04192179 </i>
    <i name="e_wo_entrp">   -989.04186270 </i>
    <i name="e_0_energy">   -989.04189224 </i>
   </energy>
  </scstep>
  <scstep>
   <time name="diag">   64.68   64.70</time>
   <time name="diis">   49.34   49.34</time>
   <time name="orth">   33.31   33.31</time>
   <time name="total">  154.57  154.66</time>
   <energy>
    <i name="e_fr_energy">   -989.04192219 </i>
    <i name="e_wo_entrp">   -989.04186311 </i>
    <i name="e_0_energy">   -989.04189265 </i>
   </energy>
  </scstep>
  <scstep>
   <time name="diag">   64.70   64.75</time>
   <time name="diis">   48.58   48.58</time>
   <time name="orth">   33.29   33.29</time>
   <time name="total">  153.81  153.89</time>
   <energy>
    <i name="e_fr_energy">   -989.04192257 </i>
    <i name="e_wo_entrp">   -989.04186353 </i>
    <i name="e_0_energy">   -989.04189305 </i>
   </energy>
  </scstep>
  <scstep>
   <time name="diag">   64.70   64.71</time>
   <time name="diis">   46.35   46.36</time>
   <time name="orth">   33.33   33.33</time>
   <time name="total">  151.62  151.67</time>
   <energy>
    <i name="e_fr_energy">   -989.04192302 </i>
    <i name="e_wo_entrp">   -989.04186395 </i>
    <i name="e_0_energy">   -989.04189348 </i>
   </energy>
  </scstep>
  <scstep>
   <time name="diag">   64.68   64.69</time>
   <time name="diis">   44.91   44.92</time>
   <time name="orth">   33.34   33.34</time>
   <time name="total">  150.13  150.20</time>
   <energy>
    <i name="e_fr_energy">   -989.04192339 </i>
    <i name="e_wo_entrp">   -989.04186431 </i>
    <i name="e_0_energy">   -989.04189385 </i>
   </energy>
  </scstep>
  <scstep>
   <time name="diag">   64.72   64.71</time>
   <time name="diis">   45.31   45.33</time>
   <time name="orth">   33.34   33.34</time>
   <time name="total">  144.42  144.51</time>
   <energy>
    <i name="alphaZ">   5627.58665258 </i>
    <i name="ewald"> -62965.47546164 </i>
    <i name="hartreedc"> -18759.44514525 </i>
    <i name="XCdc">   3406.52570590 </i>
    <i name="pawpsdc"> 116557.71244593 </i>
    <i name="pawaedc">-116063.26496728 </i>
    <i name="eentropy">     -0.00005909 </i>
    <i name="bandstr">  -7109.58555121 </i>
    <i name="atom">  78316.90445604 </i>
    <i name="e_fr_energy">   -989.04192400 </i>
    <i name="e_wo_entrp">   -989.04186491 </i>
    <i name="e_0_energy">   -989.04189446 </i>
   </energy>
  </scstep>
  <structure>
   <crystal>
    <varray name="basis" >
     <v>      11.25536799      -0.05683712       0.00671160 </v>
     <v>      -0.05690144      11.22290315      -0.00928058 </v>
     <v>       0.01016672      -0.01335853      15.80851160 </v>
    </varray>
    <i name="volume">   1996.84478767 </i>
    <varray name="rec_basis" >
     <v>       0.08884880       0.00045043      -0.00005676 </v>
     <v>       0.00044992       0.08910585       0.00007501 </v>
     <v>      -0.00003746       0.00005212       0.06325713 </v>
    </varray>
   </crystal>
   <varray name="positions" >
    <v>       0.98505900       0.25616558       0.12492405 </v>
    <v>       0.99860378       0.23094032       0.62300691 </v>
    <v>       0.98850805       0.74165877       0.12836867 </v>
    <v>       0.99832285       0.75768925       0.62255026 </v>
    <v>       0.51458321       0.24701976       0.12459009 </v>
    <v>       0.49864638       0.24295591       0.63356199 </v>
    <v>       0.51760607       0.76160897       0.13281500 </v>
    <v>       0.50001242       0.75480973       0.62666845 </v>
    <v>       0.99502481       0.25057380       0.36900203 </v>
    <v>       0.00273427       0.25143117       0.88202317 </v>
    <v>       0.00728122       0.75170733       0.36566327 </v>
    <v>       0.98328560       0.75417847       0.87968222 </v>
    <v>       0.49887486       0.24829206       0.37505209 </v>
    <v>       0.49081002       0.24614727       0.87489072 </v>
    <v>       0.49808020       0.76155248       0.37643024 </v>
    <v>       0.51029142       0.74403603       0.87490793 </v>
    <v>       0.25331596       0.99085878       0.12370785 </v>
    <v>       0.25341981       0.99755601       0.62101694 </v>
    <v>       0.22853313       0.49569142       0.13407927 </v>
    <v>       0.25524104       0.51031858       0.62875817 </v>
    <v>       0.75255653       0.99462049       0.12449466 </v>
    <v>       0.74392685       0.98113053       0.62486594 </v>
    <v>       0.76013911       0.50627531       0.12525503 </v>
    <v>       0.73485173       0.51115184       0.62906272 </v>
    <v>       0.25335579       0.97965477       0.37599118 </v>
    <v>       0.24703866       0.00856731       0.86925931 </v>
    <v>       0.25071584       0.51327235       0.36271574 </v>
    <v>       0.24878511       0.50030341       0.88706882 </v>
    <v>       0.74525686       0.99550822       0.37304660 </v>
    <v>       0.75218882       0.98534879       0.87839772 </v>
    <v>       0.74948178       0.50110693       0.36350200 </v>
    <v>       0.75208159       0.50736643       0.87742899 </v>
    <v>       0.00286706       0.99721891       0.49399933 </v>
    <v>       0.00394686       0.50352249       0.49061770 </v>
    <v>       0.49969532       0.99784779       0.99808863 </v>
    <v>       0.48542137       0.49228984       0.49597696 </v>
    <v>       0.24216817       0.24525908       0.48548037 </v>
    <v>       0.75233733       0.25549996       0.51121514 </v>
    <v>       0.74069392       0.24280084       0.75616450 </v>
    <v>       0.00406037       0.99915159       0.75018555 </v>
    <v>       0.98819493       0.99669535       0.00351730 </v>
    <v>       0.99505476       0.49372373       0.00468096 </v>
    <v>       0.49922077       0.00093638       0.50112778 </v>
    <v>       0.51077506       0.48305139       0.99011923 </v>
    <v>       0.26271690       0.26282792       0.01227943 </v>
    <v>       0.24179529       0.77271013       0.98559264 </v>
    <v>       0.25588786       0.75348984       0.50552958 </v>
    <v>       0.75519485       0.24801436       0.99587652 </v>
    <v>       0.74884044       0.74724296       0.00329570 </v>
    <v>       0.75934552       0.75874772       0.49694381 </v>
    <v>       0.25068636       0.26616846       0.24402598 </v>
    <v>       0.24484756       0.25167039       0.75887111 </v>
    <v>       0.25263382       0.75191770       0.25622831 </v>
    <v>       0.24123233       0.74221206       0.74682236 </v>
    <v>       0.74831786       0.24878505       0.23877749 </v>
    <v>       0.74880755       0.74241226       0.25252711 </v>
    <v>       0.73803558       0.74922228       0.75090456 </v>
    <v>       0.98889560       0.99125950       0.25027610 </v>
    <v>       0.99692642       0.50014966       0.24843552 </v>
    <v>       0.01711135       0.50337320       0.76251727 </v>
    <v>       0.51237005       0.99451171       0.25279371 </v>
    <v>       0.50303003       0.00475987       0.75313806 </v>
    <v>       0.50251825       0.50340086       0.25541289 </v>
    <v>       0.49436007       0.50037343       0.74743255 </v>
    <v>       0.12537585       0.12977496       0.73327305 </v>
    <v>       0.12821664       0.63521313       0.23868791 </v>
    <v>       0.11279032       0.63386991       0.73142659 </v>
    <v>       0.62033864       0.13813667       0.26738020 </v>
    <v>       0.62521307       0.12397440       0.76542666 </v>
    <v>       0.62203876       0.61839533       0.23175868 </v>
    <v>       0.62210039       0.61926620       0.75172914 </v>
    <v>       0.39193953       0.37092439       0.24902911 </v>
    <v>       0.36374606       0.36670337       0.72574015 </v>
    <v>       0.37231773       0.88316484       0.24316632 </v>
    <v>       0.86855156       0.37069282       0.26164346 </v>
    <v>       0.87441247       0.87012767       0.26493113 </v>
    <v>       0.88083807       0.86641744       0.75445659 </v>
    <v>       0.36778539       0.11714475       0.74812290 </v>
    <v>       0.37445910       0.62365323       0.22480553 </v>
    <v>       0.37430939       0.62814221       0.74370765 </v>
    <v>       0.87152528       0.12852945       0.26439808 </v>
    <v>       0.87452236       0.13176485       0.74676004 </v>
    <v>       0.87411577       0.62290691       0.25418690 </v>
    <v>       0.86736321       0.55961064       0.74099318 </v>
    <v>       0.11399611       0.37301405       0.25625906 </v>
    <v>       0.10497593       0.37122586       0.72335524 </v>
    <v>       0.13159826       0.88311503       0.24237142 </v>
    <v>       0.13611616       0.88705515       0.74754224 </v>
    <v>       0.62927844       0.37935002       0.24408397 </v>
    <v>       0.62339254       0.36878035       0.75078993 </v>
    <v>       0.62755215       0.87481776       0.25830590 </v>
    <v>       0.61389754       0.87063806       0.75396269 </v>
    <v>       0.37077598       0.39931080       0.03049360 </v>
    <v>       0.35839105       0.38554263       0.48899527 </v>
    <v>       0.37827955       0.85246736       0.02633380 </v>
    <v>       0.36881194       0.88788362       0.49378016 </v>
    <v>       0.86609229       0.38175408       0.00712106 </v>
    <v>       0.87554767       0.37298072       0.47974620 </v>
    <v>       0.87195386       0.87899822       0.99568259 </v>
    <v>       0.87783670       0.87713008       0.47932591 </v>
    <v>       0.12770426       0.12554322       0.51664736 </v>
    <v>       0.17153864       0.62709596       0.01427949 </v>
    <v>       0.12718281       0.61763446       0.52256758 </v>
    <v>       0.62216036       0.11895802       0.97560812 </v>
    <v>       0.62649465       0.13838612       0.49985275 </v>
    <v>       0.59977163       0.62175824       0.01348315 </v>
    <v>       0.11810667       0.35127951       0.01178359 </v>
    <v>       0.11964979       0.36850022       0.51539070 </v>
    <v>       0.13089899       0.89572234       0.00436810 </v>
    <v>       0.11976704       0.87271224       0.49820004 </v>
    <v>       0.61761762       0.36138208       0.00222495 </v>
    <v>       0.63042883       0.38177200       0.48263293 </v>
    <v>       0.62212947       0.87654003       0.99951556 </v>
    <v>       0.62233123       0.87496001       0.49462312 </v>
    <v>       0.36576780       0.12158784       0.99477526 </v>
    <v>       0.36828265       0.15038650       0.52363807 </v>
    <v>       0.39737828       0.63782737       0.50452213 </v>
    <v>       0.88996527       0.13494491       0.99294824 </v>
    <v>       0.86927487       0.13149314       0.48827768 </v>
    <v>       0.88320316       0.63025633       0.99856507 </v>
    <v>       0.87811421       0.61357771       0.51610955 </v>
    <v>       0.00327779       0.02479365       0.12915982 </v>
    <v>       0.98073589       0.99369818       0.61974151 </v>
    <v>       0.99625204       0.50259708       0.12690804 </v>
    <v>       0.50715700       0.02189183       0.12740868 </v>
    <v>       0.50068145       0.99534790       0.62961259 </v>
    <v>       0.51445594       0.49818658       0.61486085 </v>
    <v>       0.02973960       0.02266410       0.37120232 </v>
    <v>       0.01545602       0.01464860       0.87355182 </v>
    <v>       0.02056877       0.52070431       0.37645669 </v>
    <v>       0.02273974       0.49640210       0.88073561 </v>
    <v>       0.47620215       0.02426006       0.37272894 </v>
    <v>       0.46838281       0.97155680       0.87353985 </v>
    <v>       0.50484047       0.52469384       0.37562042 </v>
    <v>       0.47307762       0.49149826       0.87502271 </v>
    <v>       0.24741792       0.21984392       0.36898553 </v>
    <v>       0.24470545       0.26163962       0.87929362 </v>
    <v>       0.25080015       0.73692299       0.37669148 </v>
    <v>       0.27013834       0.76124356       0.86849588 </v>
    <v>       0.77971393       0.28116514       0.86704600 </v>
    <v>       0.72465442       0.71493264       0.38402339 </v>
    <v>       0.74995302       0.73867846       0.87529397 </v>
    <v>       0.23836640       0.20837487       0.13036584 </v>
    <v>       0.27199018       0.77460417       0.62923679 </v>
    <v>       0.74480126       0.22612138       0.12096832 </v>
    <v>       0.76665824       0.27488040       0.62897974 </v>
    <v>       0.75653797       0.75773676       0.12656308 </v>
    <v>       0.74286905       0.74837289       0.62107857 </v>
   </varray>
  </structure>
  <varray name="forces" >
   <v>       0.00322048       0.00482825       0.00169704 </v>
   <v>      -0.01399466       0.00061246       0.00688303 </v>
   <v>      -0.00236136      -0.00973404      -0.00197228 </v>
   <v>      -0.00163008      -0.00049322      -0.00058389 </v>
   <v>       0.00223008       0.00408229      -0.00132463 </v>
   <v>       0.00148396       0.00885029       0.00278530 </v>
   <v>      -0.00748783       0.00287692      -0.01408697 </v>
   <v>       0.00132204       0.00169052       0.00182995 </v>
   <v>      -0.00174520       0.01103448      -0.00111314 </v>
   <v>      -0.00319999       0.00538116       0.00405285 </v>
   <v>       0.00319383       0.00794460       0.00201350 </v>
   <v>       0.00633626      -0.00899975      -0.00949079 </v>
   <v>      -0.00655298      -0.00423156      -0.00569643 </v>
   <v>      -0.00714686       0.00807501      -0.00351186 </v>
   <v>      -0.00047471       0.00687763      -0.00252371 </v>
   <v>      -0.00624044      -0.00856349      -0.00038681 </v>
   <v>       0.00775608      -0.00372822      -0.00477491 </v>
   <v>      -0.00282028       0.00593460       0.00916187 </v>
   <v>       0.00175942      -0.00500972      -0.00321966 </v>
   <v>       0.01000313      -0.00016238       0.01754474 </v>
   <v>       0.00475752       0.00762703       0.01354843 </v>
   <v>      -0.00490721       0.01485778       0.00398231 </v>
   <v>      -0.01192245       0.00158269       0.00091258 </v>
   <v>       0.01065465      -0.00054916       0.00191941 </v>
   <v>      -0.00285275      -0.00548550      -0.00186345 </v>
   <v>      -0.00921872      -0.00554299      -0.00334923 </v>
   <v>       0.00729730      -0.00852104      -0.00849421 </v>
   <v>       0.01381361       0.00389003       0.01261954 </v>
   <v>       0.01240040      -0.00504538      -0.01245733 </v>
   <v>      -0.00622920       0.01128173       0.01511849 </v>
   <v>      -0.00686394       0.00025774      -0.00244698 </v>
   <v>      -0.02282879       0.00207078      -0.00691270 </v>
   <v>       0.01147477      -0.01970698       0.00492390 </v>
   <v>       0.00410266       0.01066637      -0.07565182 </v>
   <v>       0.00128096       0.00066711       0.00027845 </v>
   <v>      -0.01304159      -0.01981724       0.00899305 </v>
   <v>       0.02695183       0.00454462      -0.02537951 </v>
   <v>      -0.00484710       0.01241201       0.02164828 </v>
   <v>      -0.04607897      -0.04468670      -0.00204614 </v>
   <v>       0.00682803      -0.00161942       0.00325079 </v>
   <v>      -0.01665583      -0.01822394      -0.00019371 </v>
   <v>      -0.00308797       0.01251628      -0.00027161 </v>
   <v>      -0.01109406      -0.00323155       0.00478931 </v>
   <v>       0.00714229       0.03392112      -0.00383976 </v>
   <v>       0.01666645       0.00143183      -0.00503516 </v>
   <v>       0.00828232      -0.02986059      -0.01019259 </v>
   <v>      -0.00477529       0.00962331       0.00238965 </v>
   <v>      -0.02088402      -0.00110199       0.00253194 </v>
   <v>      -0.01241579      -0.01350544      -0.00994507 </v>
   <v>       0.00509289       0.01138202      -0.01937736 </v>
   <v>      -0.00876831       0.00117737      -0.00061224 </v>
   <v>       0.02952026       0.01906031       0.00961479 </v>
   <v>      -0.00513986      -0.00910054      -0.00357436 </v>
   <v>       0.00195160      -0.00416753       0.01627687 </v>
   <v>       0.00057893       0.00309883       0.00138440 </v>
   <v>       0.00658124      -0.00009387      -0.00366722 </v>
   <v>      -0.01882852       0.01132900       0.01406830 </v>
   <v>       0.00840577      -0.01013197      -0.00197092 </v>
   <v>       0.00033559       0.00156168       0.01124995 </v>
   <v>       0.00554264       0.01504274       0.01301498 </v>
   <v>      -0.00119069       0.01635225       0.00532388 </v>
   <v>       0.00844318       0.01153123       0.00122414 </v>
   <v>       0.00819019       0.01331844      -0.00412272 </v>
   <v>      -0.00705369      -0.00264561       0.01302568 </v>
   <v>      -0.00870058      -0.01169493      -0.00968994 </v>
   <v>      -0.00658031      -0.00339629      -0.00471212 </v>
   <v>      -0.00628993      -0.01490514      -0.01310862 </v>
   <v>       0.00467320      -0.00050819      -0.00355249 </v>
   <v>       0.00698320      -0.00077419      -0.01397877 </v>
   <v>       0.00273894      -0.01431457       0.00522215 </v>
   <v>      -0.00046202       0.00364917       0.00279966 </v>
   <v>      -0.00286960       0.00078390       0.01356597 </v>
   <v>      -0.01439686      -0.02127933      -0.00551777 </v>
   <v>      -0.00334023      -0.01621426       0.00428811 </v>
   <v>       0.00629635       0.01097294       0.00207259 </v>
   <v>      -0.00682001      -0.00652322      -0.00057702 </v>
   <v>      -0.01200429       0.00487813       0.00834665 </v>
   <v>       0.00057474       0.01311101      -0.01184224 </v>
   <v>      -0.00030600      -0.00414359       0.00683374 </v>
   <v>       0.00798028       0.00183417      -0.00633922 </v>
   <v>       0.01078318      -0.00885665      -0.00841332 </v>
   <v>       0.00075585       0.01433819       0.00007308 </v>
   <v>       0.00813670       0.00979290      -0.00141074 </v>
   <v>       0.00315685      -0.00756958      -0.00102385 </v>
   <v>       0.00100454      -0.00021220      -0.01564158 </v>
   <v>      -0.00353657      -0.02116115       0.01556295 </v>
   <v>       0.00261620       0.00571455      -0.01215205 </v>
   <v>      -0.02135593      -0.01370848       0.01819279 </v>
   <v>      -0.00195933       0.00111214       0.00185241 </v>
   <v>       0.02534754       0.00141030      -0.00502176 </v>
   <v>       0.00600881      -0.00677896       0.00982442 </v>
   <v>       0.00140700      -0.00195153      -0.01208731 </v>
   <v>       0.00947749      -0.00270002      -0.00066229 </v>
   <v>       0.00587980       0.00867196      -0.00226110 </v>
   <v>      -0.00291675       0.01941754      -0.01112002 </v>
   <v>       0.00399182       0.00583352       0.00525910 </v>
   <v>       0.01114633      -0.02295279      -0.01254439 </v>
   <v>      -0.00294761       0.00521714       0.01394029 </v>
   <v>       0.00787833      -0.00328812       0.00883543 </v>
   <v>      -0.01386338      -0.00314819       0.01936082 </v>
   <v>       0.00453275       0.01660081      -0.00592424 </v>
   <v>      -0.00055087       0.01940280       0.00996959 </v>
   <v>      -0.00019086       0.00233198      -0.00138341 </v>
   <v>       0.00821380       0.00389172       0.00354705 </v>
   <v>      -0.00014189       0.00189759      -0.00359772 </v>
   <v>      -0.00417912      -0.01940869      -0.01010639 </v>
   <v>       0.00778378      -0.00126671       0.00036923 </v>
   <v>      -0.00800095      -0.00633320       0.01693401 </v>
   <v>       0.00433449       0.02985356      -0.00148240 </v>
   <v>       0.00078414       0.01285998       0.01007471 </v>
   <v>       0.01207357       0.00101570       0.00895969 </v>
   <v>       0.01291370      -0.00453603       0.00454568 </v>
   <v>       0.00700385      -0.01568074       0.00772400 </v>
   <v>       0.01074496      -0.00764333       0.00204150 </v>
   <v>      -0.01052285       0.00845592       0.00587283 </v>
   <v>      -0.01134498       0.00259384       0.00543195 </v>
   <v>       0.00166318      -0.00338493       0.00390113 </v>
   <v>      -0.01243680      -0.00719268      -0.00487497 </v>
   <v>       0.00482149       0.00936220      -0.00143617 </v>
   <v>      -0.00599157      -0.00880073      -0.00416656 </v>
   <v>       0.00088019      -0.00597323       0.00054672 </v>
   <v>       0.00946533       0.00924950      -0.01619315 </v>
   <v>      -0.00141109       0.00726117       0.00356631 </v>
   <v>      -0.00053064      -0.00209863      -0.00070332 </v>
   <v>      -0.01069695       0.00299754       0.00122207 </v>
   <v>      -0.00498354      -0.00396283      -0.01025724 </v>
   <v>      -0.00333263       0.00173299      -0.03198605 </v>
   <v>      -0.00384121      -0.00175329      -0.00425592 </v>
   <v>      -0.00061307       0.01072862       0.00320799 </v>
   <v>      -0.00103757      -0.02650398       0.04733686 </v>
   <v>       0.00273192       0.00336253      -0.01426622 </v>
   <v>      -0.01120394       0.00744629       0.00263908 </v>
   <v>       0.00500978       0.00258915      -0.00237148 </v>
   <v>       0.00304821      -0.00392563       0.02395824 </v>
   <v>       0.02114617      -0.01361034      -0.00067617 </v>
   <v>      -0.02620853       0.00098277       0.01200148 </v>
   <v>      -0.00285367      -0.00518616      -0.00715816 </v>
   <v>       0.00615340       0.00306452       0.00619914 </v>
   <v>      -0.01767556      -0.00887900       0.00674301 </v>
   <v>      -0.00081109      -0.00813066       0.01162593 </v>
   <v>       0.00131001       0.01211561       0.02552259 </v>
   <v>       0.01237151       0.00655919       0.00234154 </v>
   <v>       0.02218843       0.00399171      -0.00902866 </v>
   <v>       0.00234789      -0.00806308      -0.00457153 </v>
   <v>       0.00793256       0.00961532      -0.01909170 </v>
   <v>      -0.01148270      -0.00452450      -0.01988339 </v>
   <v>      -0.00339609      -0.00111555      -0.00319755 </v>
   <v>       0.01423409       0.00192207      -0.01201175 </v>
  </varray>
  <varray name="stress" >
   <v>      -0.03399378      -0.05853029      -0.00607569 </v>
   <v>      -0.05853041       0.11748517       0.08692938 </v>
   <v>      -0.00607581       0.08692896      -0.13416289 </v>
  </varray>
  <energy>
   <i name="e_fr_energy">   -989.04192400 </i>
   <i name="e_wo_entrp">   -989.04189446 </i>
   <i name="e_0_energy">     -0.00005909 </i>
  </energy>
  <time name="totalsc"> 1949.69 1951.90</time>
 </calculation>
 <calculation>
  <scstep>
   <time name="dav">  562.12  562.10</time>
   <time name="total">  569.30  569.33</time>
   <energy>
    <i name="alphaZ">   5627.70252750 </i>
    <i name="ewald"> -62966.01047836 </i>
    <i name="hartreedc"> -18759.22166275 </i>
    <i name="XCdc">   3406.55788441 </i>
    <i name="pawpsdc"> 116557.63515749 </i>
    <i name="pawaedc">-116063.18763337 </i>
    <i name="eentropy">     -0.00005805 </i>
    <i name="bandstr">  -7109.42077645 </i>
    <i name="atom">  78316.90445604 </i>
    <i name="e_fr_energy">   -989.04058354 </i>
    <i name="e_wo_entrp">   -989.04052549 </i>
    <i name="e_0_energy">   -989.04055452 </i>
   </energy>
  </scstep>
  <scstep>
   <time name="diag">   64.68   64.71</time>
   <time name="diis">  105.63  105.64</time>
   <time name="orth">   33.35   33.35</time>
   <time name="total">  210.86  210.91</time>
   <energy>
    <i name="e_fr_energy">   -989.04271489 </i>
    <i name="e_wo_entrp">   -989.04265377 </i>
    <i name="e_0_energy">   -989.04268433 </i>
   </energy>
  </scstep>
  <scstep>
   <time name="diag">   64.54   64.55</time>
   <time name="diis">   94.87   94.87</time>
   <time name="orth">   33.30   33.30</time>
   <time name="total">  199.91  199.95</time>
   <energy>
    <i name="e_fr_energy">   -989.04289154 </i>
    <i name="e_wo_entrp">   -989.04283046 </i>
    <i name="e_0_energy">   -989.04286100 </i>
   </energy>
  </scstep>
  <scstep>
   <time name="diag">   64.72   64.72</time>
   <time name="diis">   72.34   72.34</time>
   <time name="orth">   33.34   33.34</time>
   <time name="total">  177.62  177.66</time>
   <energy>
    <i name="e_fr_energy">   -989.04280620 </i>
    <i name="e_wo_entrp">   -989.04274468 </i>
    <i name="e_0_energy">   -989.04277544 </i>
   </energy>
  </scstep>
  <scstep>
   <time name="diag">   64.69   64.69</time>
   <time name="diis">   66.50   66.51</time>
   <time name="orth">   33.35   33.35</time>
   <time name="total">  171.74  171.78</time>
   <energy>
    <i name="e_fr_energy">   -989.04279151 </i>
    <i name="e_wo_entrp">   -989.04272978 </i>
    <i name="e_0_energy">   -989.04276065 </i>
   </energy>
  </scstep>
  <scstep>
   <time name="diag">   64.67   64.70</time>
   <time name="diis">   63.71   63.71</time>
   <time name="orth">   33.36   33.35</time>
   <time name="total">  168.95  168.99</time>
   <energy>
    <i name="e_fr_energy">   -989.04279189 </i>
    <i name="e_wo_entrp">   -989.04273010 </i>
    <i name="e_0_energy">   -989.04276100 </i>
   </energy>
  </scstep>
  <scstep>
   <time name="diag">   64.71   64.71</time>
   <time name="diis">   61.20   61.21</time>
   <time name="orth">   33.32   33.31</time>
   <time name="total">  166.35  166.40</time>
   <energy>
    <i name="e_fr_energy">   -989.04279198 </i>
    <i name="e_wo_entrp">   -989.04273028 </i>
    <i name="e_0_energy">   -989.04276113 </i>
   </energy>
  </scstep>
  <scstep>
   <time name="diag">   64.71   64.73</time>
   <time name="diis">   58.66   58.70</time>
   <time name="orth">   33.29   33.29</time>
   <time name="total">  157.73  157.82</time>
   <energy>
    <i name="alphaZ">   5627.70252750 </i>
    <i name="ewald"> -62966.01047836 </i>
    <i name="hartreedc"> -18758.79411151 </i>
    <i name="XCdc">   3406.54288032 </i>
    <i name="pawpsdc"> 116561.81912459 </i>
    <i name="pawaedc">-116067.38421654 </i>
    <i name="eentropy">     -0.00006175 </i>
    <i name="bandstr">  -7109.82291270 </i>
    <i name="atom">  78316.90445604 </i>
    <i name="e_fr_energy">   -989.04279242 </i>
    <i name="e_wo_entrp">   -989.04273067 </i>
    <i name="e_0_energy">   -989.04276154 </i>
   </energy>
  </scstep>
  <structure>
   <crystal>
    <varray name="basis" >
     <v>      11.25521388      -0.05710723       0.00668145 </v>
     <v>      -0.05716749      11.22343984      -0.00888358 </v>
     <v>       0.01012787      -0.01280112      15.80764946 </v>
    </varray>
    <i name="volume">   1996.80367245 </i>
    <varray name="rec_basis" >
     <v>       0.08885004       0.00045252      -0.00005656 </v>
     <v>       0.00045205       0.08910160       0.00007187 </v>
     <v>      -0.00003730       0.00004988       0.06326058 </v>
    </varray>
   </crystal>
   <varray name="positions" >
    <v>       0.98507290       0.25618641       0.12492924 </v>
    <v>       0.99854379       0.23094267       0.62302794 </v>
    <v>       0.98849772       0.74161686       0.12836263 </v>
    <v>       0.99831586       0.75768710       0.62254848 </v>
    <v>       0.51459286       0.24703735       0.12458605 </v>
    <v>       0.49865293       0.24299399       0.63357051 </v>
    <v>       0.51757408       0.76162112       0.13277203 </v>
    <v>       0.50001812       0.75481703       0.62667404 </v>
    <v>       0.99501757       0.25062119       0.36899867 </v>
    <v>       0.00272066       0.25145424       0.88203556 </v>
    <v>       0.00729508       0.75174156       0.36566942 </v>
    <v>       0.98331259       0.75413988       0.87965322 </v>
    <v>       0.49884670       0.24827370       0.37503471 </v>
    <v>       0.49077958       0.24618181       0.87488004 </v>
    <v>       0.49807832       0.76158202       0.37642256 </v>
    <v>       0.51026449       0.74399908       0.87490674 </v>
    <v>       0.25334914       0.99084290       0.12369325 </v>
    <v>       0.25340782       0.99758149       0.62104492 </v>
    <v>       0.22854057       0.49566991       0.13406942 </v>
    <v>       0.25528387       0.51031816       0.62881169 </v>
    <v>       0.75257705       0.99465343       0.12453601 </v>
    <v>       0.74390613       0.98119431       0.62487814 </v>
    <v>       0.76008804       0.50628185       0.12525784 </v>
    <v>       0.73489738       0.51114972       0.62906856 </v>
    <v>       0.25334345       0.97963113       0.37598548 </v>
    <v>       0.24699903       0.00854327       0.86924909 </v>
    <v>       0.25074696       0.51323585       0.36268979 </v>
    <v>       0.24884437       0.50032048       0.88710731 </v>
    <v>       0.74530994       0.99548676       0.37300855 </v>
    <v>       0.75216232       0.98539721       0.87844390 </v>
    <v>       0.74945238       0.50110788       0.36349455 </v>
    <v>       0.75198380       0.50737481       0.87740794 </v>
    <v>       0.00291580       0.99713446       0.49401428 </v>
    <v>       0.00396488       0.50356816       0.49038685 </v>
    <v>       0.49970082       0.99785068       0.99808948 </v>
    <v>       0.48536501       0.49220440       0.49600438 </v>
    <v>       0.24228386       0.24527910       0.48540288 </v>
    <v>       0.75231677       0.25555329       0.51128124 </v>
    <v>       0.74049544       0.24260774       0.75615823 </v>
    <v>       0.00408959       0.99914478       0.75019545 </v>
    <v>       0.98812314       0.99661665       0.00351669 </v>
    <v>       0.99504179       0.49377746       0.00468017 </v>
    <v>       0.49917314       0.00092227       0.50114240 </v>
    <v>       0.51080642       0.48319735       0.99010758 </v>
    <v>       0.26278838       0.26283442       0.01226404 </v>
    <v>       0.24183017       0.77258191       0.98556145 </v>
    <v>       0.25586759       0.75353111       0.50553690 </v>
    <v>       0.75510530       0.24800918       0.99588428 </v>
    <v>       0.74878695       0.74718460       0.00326533 </v>
    <v>       0.75936765       0.75879669       0.49688469 </v>
    <v>       0.25064881       0.26617333       0.24402413 </v>
    <v>       0.24497448       0.25175300       0.75890044 </v>
    <v>       0.25261160       0.75187846       0.25621738 </v>
    <v>       0.24124056       0.74219425       0.74687202 </v>
    <v>       0.74832041       0.24879839       0.23878172 </v>
    <v>       0.74883576       0.74241198       0.25251591 </v>
    <v>       0.73795508       0.74927062       0.75094755 </v>
    <v>       0.98893142       0.99121612       0.25027005 </v>
    <v>       0.99692786       0.50015642       0.24846986 </v>
    <v>       0.01713540       0.50343803       0.76255702 </v>
    <v>       0.51236529       0.99458200       0.25281000 </v>
    <v>       0.50306647       0.00480963       0.75314181 </v>
    <v>       0.50255366       0.50345827       0.25540032 </v>
    <v>       0.49432974       0.50036195       0.74747231 </v>
    <v>       0.12533833       0.12972447       0.73324346 </v>
    <v>       0.12818838       0.63519837       0.23867353 </v>
    <v>       0.11276307       0.63380565       0.73138656 </v>
    <v>       0.62035867       0.13813458       0.26736935 </v>
    <v>       0.62524302       0.12397117       0.76538398 </v>
    <v>       0.62205017       0.61833388       0.23177457 </v>
    <v>       0.62209848       0.61928189       0.75173769 </v>
    <v>       0.39192721       0.37092775       0.24907052 </v>
    <v>       0.36368391       0.36661156       0.72572329 </v>
    <v>       0.37230305       0.88309509       0.24317937 </v>
    <v>       0.86857878       0.37074013       0.26164980 </v>
    <v>       0.87438309       0.87009948       0.26492937 </v>
    <v>       0.88078670       0.86643818       0.75448209 </v>
    <v>       0.36778817       0.11720108       0.74808679 </v>
    <v>       0.37445768       0.62363544       0.22482637 </v>
    <v>       0.37434365       0.62815024       0.74368830 </v>
    <v>       0.87157133       0.12849158       0.26437236 </v>
    <v>       0.87452591       0.13182650       0.74676030 </v>
    <v>       0.87415086       0.62294918       0.25418261 </v>
    <v>       0.86737658       0.55957817       0.74099003 </v>
    <v>       0.11400046       0.37301310       0.25621133 </v>
    <v>       0.10496027       0.37113488       0.72340269 </v>
    <v>       0.13160964       0.88313960       0.24233434 </v>
    <v>       0.13602428       0.88699582       0.74759777 </v>
    <v>       0.62927006       0.37935476       0.24408963 </v>
    <v>       0.62350124       0.36878694       0.75077456 </v>
    <v>       0.62757773       0.87478878       0.25833585 </v>
    <v>       0.61390356       0.87062966       0.75392580 </v>
    <v>       0.37081655       0.39929940       0.03049156 </v>
    <v>       0.35841645       0.38558003       0.48898838 </v>
    <v>       0.37826750       0.85255072       0.02629992 </v>
    <v>       0.36882916       0.88790880       0.49379621 </v>
    <v>       0.86613960       0.38165561       0.00708270 </v>
    <v>       0.87553511       0.37300313       0.47978876 </v>
    <v>       0.87198753       0.87898429       0.99570953 </v>
    <v>       0.87777716       0.87711632       0.47938501 </v>
    <v>       0.12772407       0.12561465       0.51662931 </v>
    <v>       0.17153667       0.62717939       0.01430997 </v>
    <v>       0.12718204       0.61764448       0.52256336 </v>
    <v>       0.62219565       0.11897494       0.97561894 </v>
    <v>       0.62649409       0.13839426       0.49984177 </v>
    <v>       0.59975332       0.62167468       0.01345227 </v>
    <v>       0.11814000       0.35127424       0.01178470 </v>
    <v>       0.11961531       0.36847288       0.51544238 </v>
    <v>       0.13091822       0.89585076       0.00436364 </v>
    <v>       0.11977066       0.87276757       0.49823082 </v>
    <v>       0.61766937       0.36138674       0.00225227 </v>
    <v>       0.63048407       0.38175280       0.48264676 </v>
    <v>       0.62215913       0.87647280       0.99953908 </v>
    <v>       0.62237711       0.87492740       0.49462932 </v>
    <v>       0.36572287       0.12162399       0.99479322 </v>
    <v>       0.36823407       0.15039742       0.52365467 </v>
    <v>       0.39738532       0.63781287       0.50453402 </v>
    <v>       0.88991182       0.13491370       0.99293336 </v>
    <v>       0.86929575       0.13153348       0.48827331 </v>
    <v>       0.88317730       0.63021835       0.99855235 </v>
    <v>       0.87811785       0.61355206       0.51611120 </v>
    <v>       0.00331860       0.02483355       0.12911041 </v>
    <v>       0.98072999       0.99372938       0.61975242 </v>
    <v>       0.99624973       0.50258804       0.12690589 </v>
    <v>       0.50711121       0.02190449       0.12741243 </v>
    <v>       0.50066003       0.99533072       0.62958128 </v>
    <v>       0.51444178       0.49819384       0.61476325 </v>
    <v>       0.02972311       0.02265646       0.37118933 </v>
    <v>       0.01545362       0.01469472       0.87356164 </v>
    <v>       0.02056361       0.52059053       0.37660108 </v>
    <v>       0.02275157       0.49641656       0.88069208 </v>
    <v>       0.47615428       0.02429183       0.37273703 </v>
    <v>       0.46840435       0.97156803       0.87353261 </v>
    <v>       0.50485338       0.52467711       0.37569352 </v>
    <v>       0.47316797       0.49144021       0.87502057 </v>
    <v>       0.24730557       0.21984762       0.36902221 </v>
    <v>       0.24469312       0.26161724       0.87927177 </v>
    <v>       0.25082657       0.73693632       0.37671039 </v>
    <v>       0.27006237       0.76120503       0.86851647 </v>
    <v>       0.77971024       0.28113021       0.86708146 </v>
    <v>       0.72466023       0.71498484       0.38410130 </v>
    <v>       0.75000618       0.73870693       0.87530111 </v>
    <v>       0.23846162       0.20839248       0.13033826 </v>
    <v>       0.27200008       0.77456955       0.62922281 </v>
    <v>       0.74483552       0.22616282       0.12091006 </v>
    <v>       0.76660898       0.27486063       0.62891907 </v>
    <v>       0.75652340       0.75773188       0.12655332 </v>
    <v>       0.74293013       0.74838142       0.62104190 </v>
   </varray>
  </structure>
  <varray name="forces" >
   <v>       0.00110658       0.00195042      -0.00494701 </v>
   <v>      -0.00627498       0.00489355       0.00009290 </v>
   <v>      -0.00401134      -0.00628868      -0.00462538 </v>
   <v>      -0.00870789      -0.00790316      -0.00222764 </v>
   <v>      -0.00069990       0.00503161      -0.00207862 </v>
   <v>      -0.00125560       0.00566678      -0.00869888 </v>
   <v>      -0.00366940       0.00710471      -0.00555401 </v>
   <v>       0.00504450      -0.00023846      -0.00660412 </v>
   <v>      -0.00446690      -0.00264840       0.01191170 </v>
   <v>      -0.00839052       0.00416287      -0.00033705 </v>
   <v>       0.00068021       0.01115504       0.00477354 </v>
   <v>       0.00030685      -0.00444944      -0.01048376 </v>
   <v>       0.00231896      -0.00140119      -0.00257016 </v>
   <v>      -0.00695420       0.00901061       0.00449412 </v>
   <v>       0.00021515       0.00347840       0.00362625 </v>
   <v>      -0.00163740      -0.00122148      -0.00427697 </v>
   <v>       0.00354609      -0.00068302      -0.00738457 </v>
   <v>      -0.00694836       0.00811719       0.00699151 </v>
   <v>      -0.00072978      -0.00926260      -0.00331819 </v>
   <v>      -0.00616774       0.00138068       0.00291934 </v>
   <v>       0.00675844       0.00751664       0.01172221 </v>
   <v>       0.00137944       0.00531071      -0.00452934 </v>
   <v>      -0.00565947      -0.00540180      -0.00059226 </v>
   <v>       0.01441706       0.00385522      -0.00331333 </v>
   <v>      -0.00411597      -0.00450955      -0.00130353 </v>
   <v>      -0.01413613      -0.00290857      -0.00004137 </v>
   <v>       0.01434756      -0.00568724      -0.00356562 </v>
   <v>       0.00244069      -0.00206063       0.01152099 </v>
   <v>       0.01283170       0.00017513      -0.00163122 </v>
   <v>       0.00630288       0.00928141       0.01708139 </v>
   <v>      -0.01262236       0.00121170       0.00723912 </v>
   <v>      -0.01060338      -0.00922800      -0.01167184 </v>
   <v>      -0.00458471       0.02288347       0.00743228 </v>
   <v>      -0.00771506      -0.01382628       0.11467995 </v>
   <v>       0.00108932       0.00408364       0.00261911 </v>
   <v>       0.01451922       0.02001710      -0.00933309 </v>
   <v>      -0.03150313       0.00886958       0.02922393 </v>
   <v>       0.00893873       0.00100241      -0.02436354 </v>
   <v>       0.07314733       0.03761176       0.00448939 </v>
   <v>      -0.00502932       0.01065983       0.00342300 </v>
   <v>      -0.00320217       0.00868017      -0.00479143 </v>
   <v>      -0.01238869      -0.00664860      -0.00560094 </v>
   <v>       0.00527192      -0.00016409       0.00319056 </v>
   <v>       0.00134430      -0.02055629       0.00681888 </v>
   <v>       0.00390443       0.00108293      -0.00483999 </v>
   <v>      -0.00295816       0.02529367       0.00818730 </v>
   <v>      -0.00154935      -0.00909998       0.00645342 </v>
   <v>      -0.00265855      -0.00200710      -0.00861819 </v>
   <v>       0.00146149      -0.00212226      -0.00606872 </v>
   <v>       0.00037181      -0.00198232       0.01582693 </v>
   <v>      -0.00029682      -0.00212176      -0.00288617 </v>
   <v>      -0.01861172      -0.00999426       0.00077035 </v>
   <v>      -0.00230593      -0.00114929       0.00149809 </v>
   <v>      -0.01604541      -0.00736483      -0.01014874 </v>
   <v>       0.00604633       0.00121326      -0.00919370 </v>
   <v>       0.00172983       0.00381801       0.00226552 </v>
   <v>       0.00103504       0.01081064      -0.01016320 </v>
   <v>       0.00763773      -0.00483260      -0.00850929 </v>
   <v>      -0.00058391       0.00060346      -0.00833544 </v>
   <v>       0.00219222      -0.01353419      -0.00723652 </v>
   <v>       0.00252471      -0.00282858       0.00768295 </v>
   <v>      -0.00604865      -0.00241234      -0.00872313 </v>
   <v>      -0.00077426      -0.00084087       0.01559597 </v>
   <v>       0.00685539       0.00044310      -0.00032518 </v>
   <v>       0.00899691      -0.00772976      -0.00087239 </v>
   <v>      -0.00492098      -0.00339559       0.00433596 </v>
   <v>       0.01661332       0.01097522      -0.00941886 </v>
   <v>       0.00368268      -0.00139658      -0.00512319 </v>
   <v>      -0.03558636      -0.04017010      -0.00563796 </v>
   <v>       0.00888660      -0.00243791       0.00045527 </v>
   <v>      -0.00893576      -0.00412410       0.00463819 </v>
   <v>      -0.00304124       0.00336843       0.01141357 </v>
   <v>       0.01099769       0.00405310      -0.00589853 </v>
   <v>       0.00154531      -0.01379580       0.00264355 </v>
   <v>       0.00043223       0.00746733      -0.00007759 </v>
   <v>       0.00096344      -0.00440491      -0.00095169 </v>
   <v>      -0.01109385       0.00584716       0.00986952 </v>
   <v>       0.01107059       0.00635924      -0.00656540 </v>
   <v>      -0.00124470      -0.00442787       0.00416559 </v>
   <v>       0.00767514      -0.00194527       0.00220096 </v>
   <v>       0.00486936      -0.00281983      -0.01267597 </v>
   <v>      -0.00914079       0.01028316      -0.00047869 </v>
   <v>       0.01120352       0.00211479       0.00723284 </v>
   <v>      -0.00031720      -0.00310958       0.00237313 </v>
   <v>      -0.00531328       0.00672781      -0.00856102 </v>
   <v>      -0.00488987      -0.00698264       0.02268176 </v>
   <v>       0.00187823      -0.00023604      -0.01015991 </v>
   <v>      -0.00571513      -0.02607926       0.01568602 </v>
   <v>       0.00128150      -0.00191977       0.00003943 </v>
   <v>       0.00152273       0.00560513      -0.00371532 </v>
   <v>      -0.00590050       0.00260045       0.00534829 </v>
   <v>      -0.00933766       0.00707353      -0.00640951 </v>
   <v>       0.01503696       0.00850595      -0.00491523 </v>
   <v>      -0.01682744      -0.01444336      -0.00418649 </v>
   <v>      -0.00225687       0.00797639      -0.01308623 </v>
   <v>      -0.00225296       0.00300968       0.00335487 </v>
   <v>       0.02038960      -0.00434900      -0.00723060 </v>
   <v>      -0.00282640       0.00647476       0.00364134 </v>
   <v>      -0.01023970      -0.02411967       0.00773070 </v>
   <v>       0.01331086       0.01302618       0.00907803 </v>
   <v>       0.00341323       0.00601887      -0.00869968 </v>
   <v>      -0.00583730       0.00211048       0.01335980 </v>
   <v>       0.00681947       0.01038446      -0.00799662 </v>
   <v>      -0.00718074      -0.00693701       0.00404338 </v>
   <v>      -0.00788105      -0.00290255      -0.00185346 </v>
   <v>       0.00852728       0.00849535      -0.00665067 </v>
   <v>       0.00972164       0.00570245       0.00102395 </v>
   <v>       0.00183950      -0.00345045      -0.00205199 </v>
   <v>       0.02100826      -0.00166512      -0.00792905 </v>
[...]
       <r>   -17.8340     0.0000    32.0000 </r>
       <r>   -17.6789     0.0000    32.0000 </r>
       <r>   -17.5239     0.0000    32.0000 </r>
       <r>   -17.3688     0.0000    32.0000 </r>
       <r>   -17.2137     0.0000    32.0000 </r>
       <r>   -17.0587     0.0000    32.0000 </r>
       <r>   -16.9036     0.0000    32.0000 </r>
       <r>   -16.7486     0.0000    32.0000 </r>
       <r>   -16.5935     0.0000    32.0000 </r>
       <r>   -16.4385     0.0000    32.0000 </r>
       <r>   -16.2834     0.0000    32.0000 </r>
       <r>   -16.1283     0.0000    32.0000 </r>
       <r>   -15.9733     0.0000    32.0000 </r>
       <r>   -15.8182     0.0000    32.0000 </r>
       <r>   -15.6632     0.0000    32.0000 </r>
       <r>   -15.5081     0.0000    32.0000 </r>
       <r>   -15.3531     1.4491    32.2247 </r>
       <r>   -15.1980    11.3484    33.9843 </r>
       <r>   -15.0429    13.4566    36.0709 </r>
       <r>   -14.8879    15.3871    38.4567 </r>
       <r>   -14.7328    40.7522    44.7757 </r>
       <r>   -14.5778    50.5887    52.6198 </r>
       <r>   -14.4227    41.8351    59.1066 </r>
       <r>   -14.2677    39.4188    65.2188 </r>
       <r>   -14.1126    57.0923    74.0713 </r>
       <r>   -13.9575    70.1167    84.9434 </r>
       <r>   -13.8025    75.4007    96.6348 </r>
       <r>   -13.6474    55.3304   105.2142 </r>
       <r>   -13.4924    35.2352   110.6776 </r>
       <r>   -13.3373    31.8120   115.6103 </r>
       <r>   -13.1823     2.5133   116.0000 </r>
       <r>   -13.0272     0.0000   116.0000 </r>
       <r>   -12.8721     7.3534   117.1402 </r>
       <r>   -12.7171    55.7049   125.7776 </r>
       <r>   -12.5620    62.9009   135.5308 </r>
       <r>   -12.4070    94.6387   150.2052 </r>
       <r>   -12.2519   112.4406   167.6399 </r>
       <r>   -12.0969    92.1021   181.9210 </r>
       <r>   -11.9418    83.1168   194.8089 </r>
       <r>   -11.7867    62.1747   204.4495 </r>
       <r>   -11.6317    40.3673   210.7087 </r>
       <r>   -11.4766     8.3256   211.9997 </r>
       <r>   -11.3216     0.0023   212.0000 </r>
       <r>   -11.1665     0.0000   212.0000 </r>
       <r>   -11.0115     0.0000   212.0000 </r>
       <r>   -10.8564     0.0000   212.0000 </r>
       <r>   -10.7013     0.0000   212.0000 </r>
       <r>   -10.5463     0.0000   212.0000 </r>
       <r>   -10.3912     0.0000   212.0000 </r>
       <r>   -10.2362     0.0000   212.0000 </r>
       <r>   -10.0811     0.0000   212.0000 </r>
       <r>    -9.9261     0.0000   212.0000 </r>
       <r>    -9.7710     0.0000   212.0000 </r>
       <r>    -9.6159     0.0000   212.0000 </r>
       <r>    -9.4609     0.0000   212.0000 </r>
       <r>    -9.3058     0.0000   212.0000 </r>
       <r>    -9.1508     0.0000   212.0000 </r>
       <r>    -8.9957     0.0000   212.0000 </r>
       <r>    -8.8407     0.0000   212.0000 </r>
       <r>    -8.6856     0.0000   212.0000 </r>
       <r>    -8.5305     0.0000   212.0000 </r>
       <r>    -8.3755     0.0000   212.0000 </r>
       <r>    -8.2204     0.0000   212.0000 </r>
       <r>    -8.0654     0.0000   212.0000 </r>
       <r>    -7.9103     0.0000   212.0000 </r>
       <r>    -7.7553     0.0000   212.0000 </r>
       <r>    -7.6002     0.0000   212.0000 </r>
       <r>    -7.4452     0.0000   212.0000 </r>
       <r>    -7.2901     0.0000   212.0000 </r>
       <r>    -7.1350     0.0000   212.0000 </r>
       <r>    -6.9800     0.0000   212.0000 </r>
       <r>    -6.8249     0.0000   212.0000 </r>
       <r>    -6.6699     0.0000   212.0000 </r>
       <r>    -6.5148     0.0000   212.0000 </r>
       <r>    -6.3598     0.0000   212.0000 </r>
       <r>    -6.2047     0.0000   212.0000 </r>
       <r>    -6.0496     0.0000   212.0000 </r>
       <r>    -5.8946     0.0000   212.0000 </r>
       <r>    -5.7395     0.0000   212.0000 </r>
       <r>    -5.5845     0.0000   212.0000 </r>
       <r>    -5.4294     0.0000   212.0000 </r>
       <r>    -5.2744     0.0000   212.0000 </r>
       <r>    -5.1193     0.0000   212.0000 </r>
       <r>    -4.9642     0.0000   212.0000 </r>
       <r>    -4.8092     0.0000   212.0000 </r>
       <r>    -4.6541     0.0000   212.0000 </r>
       <r>    -4.4991     0.0000   212.0000 </r>
       <r>    -4.3440     0.0000   212.0000 </r>
       <r>    -4.1890     0.0000   212.0000 </r>
       <r>    -4.0339     0.0000   212.0000 </r>
       <r>    -3.8788     0.0000   212.0000 </r>
       <r>    -3.7238     0.0000   212.0000 </r>
       <r>    -3.5687     0.0000   212.0000 </r>
       <r>    -3.4137     0.0000   212.0000 </r>
       <r>    -3.2586     0.0000   212.0000 </r>
       <r>    -3.1036     0.0000   212.0000 </r>
       <r>    -2.9485     0.0000   212.0000 </r>
       <r>    -2.7934     0.0000   212.0000 </r>
       <r>    -2.6384     0.0240   212.0037 </r>
       <r>    -2.4833     6.1754   212.9613 </r>
       <r>    -2.3283     9.1166   214.3748 </r>
       <r>    -2.1732    22.5711   217.8746 </r>
       <r>    -2.0182    19.8335   220.9500 </r>
       <r>    -1.8631    28.2467   225.3298 </r>
       <r>    -1.7080    28.9540   229.8193 </r>
       <r>    -1.5530    33.0358   234.9418 </r>
       <r>    -1.3979    42.0564   241.4629 </r>
       <r>    -1.2429    42.8837   248.1123 </r>
       <r>    -1.0878    46.2020   255.2762 </r>
       <r>    -0.9328    58.5551   264.3556 </r>
       <r>    -0.7777    84.4879   277.4561 </r>
       <r>    -0.6226    99.9053   292.9471 </r>
       <r>    -0.4676   103.3239   308.9682 </r>
       <r>    -0.3125    75.3444   320.6508 </r>
       <r>    -0.1575    54.4968   329.1010 </r>
       <r>    -0.0024    55.5272   337.7108 </r>
       <r>     0.1526    56.8181   346.5209 </r>
       <r>     0.3077    57.4013   355.4214 </r>
       <r>     0.4628    56.3706   364.1620 </r>
       <r>     0.6178    57.4085   373.0636 </r>
       <r>     0.7729    57.5884   381.9931 </r>
       <r>     0.9279    55.6518   390.6223 </r>
       <r>     1.0830    55.8697   399.2853 </r>
       <r>     1.2380    57.7867   408.2455 </r>
       <r>     1.3931    61.9281   417.8479 </r>
       <r>     1.5482    66.8681   428.2162 </r>
       <r>     1.7032    65.1566   438.3192 </r>
       <r>     1.8583    57.8275   447.2858 </r>
       <r>     2.0133    38.4718   453.2511 </r>
       <r>     2.1684    34.2664   458.5643 </r>
       <r>     2.3234    24.7795   462.4066 </r>
       <r>     2.4785    10.2740   463.9996 </r>
       <r>     2.6335     0.2140   464.0328 </r>
       <r>     2.7886     6.2019   464.9945 </r>
       <r>     2.9437     0.0357   465.0000 </r>
       <r>     3.0987     0.0000   465.0000 </r>
       <r>     3.2538     0.0000   465.0000 </r>
       <r>     3.4088     0.0000   465.0000 </r>
       <r>     3.5639     0.0000   465.0000 </r>
       <r>     3.7189     0.0000   465.0000 </r>
       <r>     3.8740     0.0000   465.0000 </r>
       <r>     4.0291     0.0000   465.0000 </r>
       <r>     4.1841     0.0607   465.0094 </r>
       <r>     4.3392     9.9602   466.5538 </r>
       <r>     4.4942    36.1395   472.1575 </r>
       <r>     4.6493    75.2071   483.8189 </r>
       <r>     4.8043    60.7722   493.2420 </r>
       <r>     4.9594    62.9352   503.0006 </r>
       <r>     5.1145    68.9383   513.6899 </r>
       <r>     5.2695    75.8513   525.4512 </r>
       <r>     5.4246    88.5444   539.1806 </r>
       <r>     5.5796    92.3220   553.4958 </r>
       <r>     5.7347    78.5149   565.6701 </r>
       <r>     5.8897    63.4710   575.5117 </r>
       <r>     6.0448    61.6818   585.0759 </r>
       <r>     6.1999    49.1921   592.7035 </r>
       <r>     6.3549    30.5160   597.4352 </r>
       <r>     6.5100    24.7235   601.2687 </r>
       <r>     6.6650    22.1988   604.7108 </r>
       <r>     6.8201    20.7645   607.9305 </r>
       <r>     6.9751    14.8386   610.2313 </r>
       <r>     7.1302    15.9353   612.7022 </r>
       <r>     7.2853    19.3530   615.7030 </r>
       <r>     7.4403    15.3791   618.0877 </r>
       <r>     7.5954    15.4131   620.4776 </r>
       <r>     7.7504    16.4438   623.0273 </r>
       <r>     7.9055    13.1573   625.0674 </r>
       <r>     8.0605    17.5120   627.7828 </r>
       <r>     8.2156    22.6995   631.3025 </r>
       <r>     8.3707    21.0019   634.5590 </r>
       <r>     8.5257    25.1785   638.4631 </r>
       <r>     8.6808    25.1139   642.3572 </r>
       <r>     8.8358    32.0310   647.3238 </r>
       <r>     8.9909    28.5386   651.7489 </r>
       <r>     9.1459    36.6826   657.4368 </r>
       <r>     9.3010    40.3120   663.6874 </r>
       <r>     9.4561    44.0108   670.5116 </r>
       <r>     9.6111    46.6531   677.7455 </r>
       <r>     9.7662    52.8611   685.9420 </r>
       <r>     9.9212    53.6055   694.2539 </r>
       <r>    10.0763    56.4256   703.0031 </r>
       <r>    10.2313    51.2920   710.9563 </r>
       <r>    10.3864    50.7993   718.8331 </r>
       <r>    10.5415    49.6284   726.5283 </r>
       <r>    10.6965    51.2313   734.4721 </r>
       <r>    10.8516    51.3375   742.4323 </r>
       <r>    11.0066    52.1063   750.5117 </r>
       <r>    11.1617    48.4954   758.0313 </r>
       <r>    11.3167    48.6417   765.5735 </r>
       <r>    11.4718    15.6403   767.9987 </r>
       <r>    11.6269     0.0087   768.0000 </r>
       <r>    11.7819     0.0000   768.0000 </r>
       <r>    11.9370     0.0000   768.0000 </r>
       <r>    12.0920     0.0000   768.0000 </r>
       <r>    12.2471     0.0000   768.0000 </r>
       <r>    12.4021     0.0000   768.0000 </r>
       <r>    12.5572     0.0000   768.0000 </r>
       <r>    12.7123     0.0000   768.0000 </r>
       <r>    12.8673     0.0000   768.0000 </r>
       <r>    13.0224     0.0000   768.0000 </r>
       <r>    13.1774     0.0000   768.0000 </r>
       <r>    13.3325     0.0000   768.0000 </r>
       <r>    13.4875     0.0000   768.0000 </r>
      </set>
     </set>
    </array>
   </total>
  </dos>
 </calculation>
 <structure name="finalpos" >
  <crystal>
   <varray name="basis" >
    <v>      11.25541197      -0.05600201       0.00620764 </v>
    <v>      -0.05605902      11.22485380      -0.00849650 </v>
    <v>       0.00946374      -0.01225940      15.80824906 </v>
   </varray>
   <i name="volume">   1997.16832856 </i>
   <varray name="rec_basis" >
    <v>       0.08884838       0.00044369      -0.00005285 </v>
    <v>       0.00044324       0.08909029       0.00006882 </v>
    <v>      -0.00003465       0.00004771       0.06325817 </v>
   </varray>
  </crystal>
  <varray name="positions" >
   <v>       0.98516116       0.25630611       0.12486331 </v>
   <v>       0.99833059       0.23100880       0.62305685 </v>
   <v>       0.98838259       0.74132302       0.12825089 </v>
   <v>       0.99811216       0.75761630       0.62252527 </v>
   <v>       0.51455864       0.24715074       0.12458471 </v>
   <v>       0.49870388       0.24319009       0.63346801 </v>
   <v>       0.51748570       0.76180481       0.13265584 </v>
   <v>       0.50010074       0.75484272       0.62659922 </v>
   <v>       0.99496299       0.25070951       0.36909671 </v>
   <v>       0.00252952       0.25165690       0.88213933 </v>
   <v>       0.00736641       0.75189274       0.36574472 </v>
   <v>       0.98331222       0.75390993       0.87943135 </v>
   <v>       0.49881613       0.24819093       0.37495503 </v>
   <v>       0.49061087       0.24637975       0.87486176 </v>
   <v>       0.49806889       0.76173825       0.37644976 </v>
   <v>       0.51015268       0.74395702       0.87481329 </v>
   <v>       0.25354029       0.99085436       0.12355497 </v>
   <v>       0.25327834       0.99776982       0.62119225 </v>
   <v>       0.22848886       0.49546853       0.13401383 </v>
   <v>       0.25534318       0.51036809       0.62896993 </v>
   <v>       0.75278440       0.99486142       0.12484111 </v>
   <v>       0.74381465       0.98145654       0.62484083 </v>
   <v>       0.75991448       0.50615235       0.12525162 </v>
   <v>       0.73518325       0.51119206       0.62905712 </v>
   <v>       0.25324461       0.97950100       0.37594592 </v>
   <v>       0.24677789       0.00840031       0.86925237 </v>
   <v>       0.25106865       0.51306651       0.36255836 </v>
   <v>       0.24901731       0.50033495       0.88740294 </v>
   <v>       0.74571163       0.99545167       0.37286756 </v>
   <v>       0.75219276       0.98562603       0.87880175 </v>
   <v>       0.74921357       0.50119645       0.36354970 </v>
   <v>       0.75146401       0.50721710       0.87714722 </v>
   <v>       0.00297607       0.99735893       0.49408864 </v>
   <v>       0.00410328       0.50349792       0.49047410 </v>
   <v>       0.49969579       0.99785152       0.99810022 </v>
   <v>       0.48531573       0.49220299       0.49601143 </v>
   <v>       0.24211598       0.24537760       0.48542262 </v>
   <v>       0.75224472       0.25556398       0.51124477 </v>
   <v>       0.74056380       0.24253152       0.75615298 </v>
   <v>       0.00400977       0.99921217       0.75028456 </v>
   <v>       0.98794542       0.99650638       0.00349680 </v>
   <v>       0.99475952       0.49379723       0.00464584 </v>
   <v>       0.49913879       0.00093828       0.50122716 </v>
   <v>       0.51085479       0.48325402       0.99012398 </v>
   <v>       0.26301303       0.26287751       0.01219872 </v>
   <v>       0.24176786       0.77277870       0.98558841 </v>
   <v>       0.25586026       0.75350793       0.50562241 </v>
   <v>       0.75494326       0.24799808       0.99583279 </v>
   <v>       0.74869795       0.74700651       0.00316309 </v>
   <v>       0.75938494       0.75892711       0.49695273 </v>
   <v>       0.25059991       0.26615619       0.24399868 </v>
   <v>       0.24487512       0.25169966       0.75894000 </v>
   <v>       0.25254103       0.75172069       0.25621998 </v>
   <v>       0.24111447       0.74201997       0.74685847 </v>
   <v>       0.74850773       0.24890372       0.23868265 </v>
   <v>       0.74891854       0.74242154       0.25246871 </v>
   <v>       0.73776264       0.74964483       0.75094670 </v>
   <v>       0.98912477       0.99102167       0.25008988 </v>
   <v>       0.99692851       0.50017918       0.24845648 </v>
   <v>       0.01724277       0.50336029       0.76261447 </v>
   <v>       0.51237086       0.99459400       0.25291898 </v>
   <v>       0.50292179       0.00484262       0.75304536 </v>
   <v>       0.50257017       0.50350823       0.25553923 </v>
   <v>       0.49448344       0.50033552       0.74748307 </v>
   <v>       0.12545941       0.12941604       0.73314838 </v>
   <v>       0.12811380       0.63517193       0.23868197 </v>
   <v>       0.11287144       0.63358547       0.73112136 </v>
   <v>       0.62051142       0.13807359       0.26724822 </v>
   <v>       0.62521039       0.12373970       0.76517387 </v>
   <v>       0.62227588       0.61818652       0.23182750 </v>
   <v>       0.62206814       0.61936003       0.75181011 </v>
   <v>       0.39183097       0.37104302       0.24940611 </v>
   <v>       0.36375418       0.36652871       0.72560357 </v>
   <v>       0.37238572       0.88268683       0.24322177 </v>
   <v>       0.86855612       0.37090994       0.26166340 </v>
   <v>       0.87439633       0.87005526       0.26487163 </v>
   <v>       0.88046583       0.86673395       0.75466845 </v>
   <v>       0.36788109       0.11748948       0.74796484 </v>
   <v>       0.37446206       0.62348003       0.22494462 </v>
   <v>       0.37453190       0.62813277       0.74370172 </v>
   <v>       0.87180421       0.12842996       0.26409041 </v>
   <v>       0.87458255       0.13206658       0.74675373 </v>
   <v>       0.87435596       0.62317597       0.25426869 </v>
   <v>       0.86748508       0.55937312       0.74102280 </v>
   <v>       0.11394874       0.37305934       0.25587320 </v>
   <v>       0.10476378       0.37071631       0.72388917 </v>
   <v>       0.13166232       0.88316037       0.24207004 </v>
   <v>       0.13552859       0.88639671       0.74796268 </v>
   <v>       0.62924743       0.37931715       0.24410541 </v>
   <v>       0.62384070       0.36894299       0.75067380 </v>
   <v>       0.62750618       0.87477909       0.25847880 </v>
   <v>       0.61372521       0.87062262       0.75373987 </v>
   <v>       0.37112541       0.39945451       0.03040455 </v>
   <v>       0.35829661       0.38554348       0.48889621 </v>
   <v>       0.37825483       0.85292099       0.02600958 </v>
   <v>       0.36880245       0.88795755       0.49388651 </v>
   <v>       0.86661795       0.38114480       0.00680432 </v>
   <v>       0.87551382       0.37318145       0.48001449 </v>
   <v>       0.87207118       0.87856627       0.99587578 </v>
   <v>       0.87788503       0.87731455       0.47966225 </v>
   <v>       0.12761683       0.12578187       0.51652627 </v>
   <v>       0.17145093       0.62749155       0.01460151 </v>
   <v>       0.12723916       0.61778479       0.52244607 </v>
   <v>       0.62215096       0.11897866       0.97572128 </v>
   <v>       0.62643246       0.13840473       0.49977402 </v>
   <v>       0.59985601       0.62169639       0.01328045 </v>
   <v>       0.11851205       0.35139850       0.01179560 </v>
   <v>       0.11948135       0.36846803       0.51568056 </v>
   <v>       0.13127700       0.89623300       0.00418101 </v>
   <v>       0.11993249       0.87299357       0.49844023 </v>
   <v>       0.61777451       0.36169226       0.00243351 </v>
   <v>       0.63054447       0.38170718       0.48266073 </v>
   <v>       0.62201101       0.87632944       0.99963646 </v>
   <v>       0.62239450       0.87497268       0.49467040 </v>
   <v>       0.36579808       0.12167847       0.99477091 </v>
   <v>       0.36810365       0.15045091       0.52377820 </v>
   <v>       0.39733831       0.63777215       0.50459288 </v>
   <v>       0.88935548       0.13454847       0.99283945 </v>
   <v>       0.86944148       0.13176159       0.48820743 </v>
   <v>       0.88288767       0.62989334       0.99845536 </v>
   <v>       0.87820979       0.61348019       0.51600152 </v>
   <v>       0.00356713       0.02506337       0.12895365 </v>
   <v>       0.98072375       0.99386198       0.61983692 </v>
   <v>       0.99617060       0.50257284       0.12685286 </v>
   <v>       0.50688327       0.02189657       0.12747318 </v>
   <v>       0.50049460       0.99518398       0.62955716 </v>
   <v>       0.51448164       0.49812071       0.61474890 </v>
   <v>       0.02961288       0.02240313       0.37114997 </v>
   <v>       0.01539229       0.01503518       0.87358917 </v>
   <v>       0.02073593       0.52005859       0.37642589 </v>
   <v>       0.02304577       0.49666842       0.88077800 </v>
   <v>       0.47581338       0.02449053       0.37269458 </v>
   <v>       0.46853652       0.97161303       0.87350959 </v>
   <v>       0.50508204       0.52458606       0.37575209 </v>
   <v>       0.47366826       0.49103383       0.87489944 </v>
   <v>       0.24663473       0.21989750       0.36894022 </v>
   <v>       0.24477544       0.26157964       0.87930857 </v>
   <v>       0.25087013       0.73702544       0.37672295 </v>
   <v>       0.26970649       0.76070319       0.86852165 </v>
   <v>       0.77932628       0.28078223       0.86715852 </v>
   <v>       0.72464109       0.71510488       0.38411521 </v>
   <v>       0.75011859       0.73879616       0.87532094 </v>
   <v>       0.23921495       0.20852863       0.13030672 </v>
   <v>       0.27198575       0.77446287       0.62934676 </v>
   <v>       0.74498640       0.22649229       0.12087530 </v>
   <v>       0.76623576       0.27463963       0.62895053 </v>
   <v>       0.75632981       0.75756427       0.12650017 </v>
   <v>       0.74331990       0.74840901       0.62103998 </v>
  </varray>
 </structure>
</modeling>
