       N       E                     dE             d eps       ncg     rms          rms(c)
DAV:   1    -0.111909036690E+04   -0.11191E+04   -0.30069E-02 12960   0.403E-01    0.245E-02
RMM:   2    -0.111909036638E+04    0.52809E-06   -0.14628E-05  6952   0.677E-03    0.384E-02
RMM:   3    -0.111909036663E+04   -0.25495E-06   -0.45368E-06  5883   0.418E-03    0.387E-03
RMM:   4    -0.111909036657E+04    0.64800E-07   -0.13265E-06  3070   0.204E-03    0.276E-03
RMM:   5    -0.111909036643E+04    0.13485E-06   -0.85780E-07  2916   0.213E-03    0.379E-03
RMM:   6    -0.111909036631E+04    0.12168E-06   -0.25943E-07  1935   0.170E-03    0.157E-03
RMM:   7    -0.111909036625E+04    0.59066E-07   -0.17568E-07  1666   0.172E-03    0.533E-04
RMM:   8    -0.111909036622E+04    0.25088E-07   -0.30387E-08  1311   0.163E-03
   1 F= -.11190904E+04 E0= -.11190904E+04  d E =-.111909E+04  mag=    40.0000
       N       E                     dE             d eps       ncg     rms          rms(c)
DAV:   1    -0.111909040897E+04   -0.42723E-04   -0.14453E-01 12864   0.449E-01    0.160E-01
RMM:   2    -0.111909076372E+04   -0.35475E-03   -0.45633E-03 12300   0.901E-02    0.129E-01
RMM:   3    -0.111909073965E+04    0.24076E-04   -0.19219E-04  8454   0.278E-02    0.807E-02
RMM:   4    -0.111909070645E+04    0.33196E-04   -0.10536E-04  7238   0.142E-02    0.460E-02
RMM:   5    -0.111909070189E+04    0.45624E-05   -0.45381E-05  7056   0.101E-02    0.521E-02
RMM:   6    -0.111909070316E+04   -0.12723E-05   -0.15793E-05  6614   0.635E-03    0.118E-02
RMM:   7    -0.111909070414E+04   -0.98255E-06   -0.60874E-06  5839   0.377E-03    0.111E-02
RMM:   8    -0.111909070511E+04   -0.97057E-06   -0.39808E-06  5446   0.332E-03
   2 F= -.11190907E+04 E0= -.11190907E+04  d E =-.338887E-03  mag=    40.0000
       N       E                     dE             d eps       ncg     rms          rms(c)
DAV:   1    -0.111909072831E+04   -0.24165E-04   -0.67692E-03 12736   0.972E-02    0.347E-02
RMM:   2    -0.111909074178E+04   -0.13468E-04   -0.18742E-04  7157   0.193E-02    0.310E-02
RMM:   3    -0.111909074287E+04   -0.10955E-05   -0.17660E-05  6339   0.786E-03    0.164E-02
RMM:   4    -0.111909074144E+04    0.14300E-05   -0.52731E-06  5700   0.350E-03    0.131E-02
RMM:   5    -0.111909074069E+04    0.75404E-06   -0.12948E-06  3603   0.249E-03    0.396E-03
RMM:   6    -0.111909074063E+04    0.55923E-07   -0.41804E-07  2020   0.205E-03    0.152E-03
RMM:   7    -0.111909074062E+04    0.12427E-07   -0.12669E-07  1179   0.190E-03    0.975E-04
RMM:   8    -0.111909074060E+04    0.22439E-07   -0.78714E-08  1011   0.186E-03
   3 F= -.11190907E+04 E0= -.11190907E+04  d E =-.374371E-03  mag=    40.0000
       N       E                     dE             d eps       ncg     rms          rms(c)
DAV:   1    -0.111909071730E+04    0.23314E-04   -0.15081E-01 12728   0.463E-01    0.132E-01
RMM:   2    -0.111909113070E+04   -0.41339E-03   -0.40280E-03 12337   0.836E-02    0.900E-02
RMM:   3    -0.111909113922E+04   -0.85199E-05   -0.17216E-04  7643   0.279E-02    0.531E-02
RMM:   4    -0.111909112801E+04    0.11211E-04   -0.60328E-05  6954   0.107E-02    0.315E-02
RMM:   5    -0.111909112697E+04    0.10364E-05   -0.20542E-05  6793   0.718E-03    0.276E-02
RMM:   6    -0.111909112763E+04   -0.66280E-06   -0.85679E-06  6089   0.418E-03    0.687E-03
RMM:   7    -0.111909112780E+04   -0.16970E-06   -0.36478E-06  4794   0.336E-03    0.568E-03
RMM:   8    -0.111909112781E+04   -0.86147E-08   -0.21542E-06  3517   0.234E-03
   4 F= -.11190911E+04 E0= -.11190911E+04  d E =-.387215E-03  mag=    40.0000
