<?xml version="1.0" encoding="ISO-8859-1"?>
<modeling>
 <generator>
  <i name="program" type="string">vasp </i>
  <i name="version" type="string">5.4.1  </i>
  <i name="subversion" type="string">05Feb16 (build Jan 25 2017 20:16:33) complex                          parallel </i>
  <i name="platform" type="string">BWXE6 </i>
  <i name="date" type="string">2019 06 25 </i>
  <i name="time" type="string">10:07:10 </i>
 </generator>
 <incar>
  <i type="string" name="SYSTEM"> STF</i>
  <i type="string" name="PREC">normal</i>
  <i type="string" name="ALGO"> Fast</i>
  <i type="int" name="ISPIN">     2</i>
  <i type="int" name="NELM">    40</i>
  <i type="int" name="NELMIN">     8</i>
  <i type="int" name="IBRION">     2</i>
  <i name="EDIFF">      0.00010000</i>
  <i name="EDIFFG">     -0.03000000</i>
  <i type="int" name="NSW">    30</i>
  <i type="int" name="ISIF">     3</i>
  <i name="ENCUT">    520.00000000</i>
  <i type="int" name="NBANDS">   768</i>
  <v name="MAGMOM">      0.60000000      0.60000000      0.60000000      0.60000000      0.60000000      0.60000000      0.60000000      0.60000000      0.60000000      0.60000000      0.60000000      0.60000000      0.60000000      0.60000000      0.60000000      0.60000000      0.60000000      0.60000000      0.60000000      0.60000000
      0.60000000      0.60000000      0.60000000      0.60000000      0.60000000      0.60000000      0.60000000      0.60000000      0.60000000      0.60000000      0.60000000      0.60000000      0.60000000      0.60000000      0.60000000      0.60000000      0.60000000      0.60000000      0.60000000      0.60000000
      0.60000000      0.60000000      0.60000000      0.60000000      0.60000000      0.60000000      0.60000000      0.60000000      0.60000000      0.60000000      0.60000000      0.60000000      0.60000000      0.60000000      0.60000000      0.60000000      5.00000000      5.00000000      5.00000000      5.00000000
      5.00000000      5.00000000      5.00000000      5.00000000      0.60000000      0.60000000      0.60000000      0.60000000      0.60000000      0.60000000      0.60000000      0.60000000      0.60000000      0.60000000      0.60000000      0.60000000      0.60000000      0.60000000      0.60000000      0.60000000
      0.60000000      0.60000000      0.60000000      0.60000000      0.60000000      0.60000000      0.60000000      0.60000000      0.60000000      0.60000000      0.60000000      0.60000000      0.60000000      0.60000000      0.60000000      0.60000000      0.60000000      0.60000000      0.60000000      0.60000000
      0.60000000      0.60000000      0.60000000      0.60000000      0.60000000      0.60000000      0.60000000      0.60000000      0.60000000      0.60000000      0.60000000      0.60000000      0.60000000      0.60000000      0.60000000      0.60000000      0.60000000      0.60000000      0.60000000      0.60000000
      0.60000000      0.60000000      0.60000000      0.60000000      0.60000000      0.60000000      0.60000000      0.60000000      0.60000000      0.60000000      0.60000000      0.60000000      0.60000000      0.60000000      0.60000000      0.60000000      0.60000000      0.60000000      0.60000000      0.60000000
      0.60000000      0.60000000      0.60000000      0.60000000      0.60000000      0.60000000      0.60000000      0.60000000      0.60000000      0.60000000      0.60000000      0.60000000      0.60000000      0.60000000      0.60000000      0.60000000</v>
  <i type="string" name="LREAL"> Auto</i>
  <i type="int" name="ISMEAR">     0</i>
  <i name="SIGMA">      0.05000000</i>
  <i type="int" name="LMAXMIX">     4</i>
  <v type="int" name="KPOINT_BSE">    -1     0     0     0</v>
  <i type="int" name="NELM">    40</i>
  <i type="logical" name="LDAU"> T  </i>
  <v type="int" name="LDAUTYPE">     2</v>
  <v type="int" name="LDAUL">     0     2     2     0</v>
  <v name="LDAUU">      0.00000000      3.00000000      5.00000000      0.00000000</v>
  <v name="LDAUJ">      0.00000000      0.00000000      0.00000000      0.00000000</v>
  <i type="int" name="LDAUPRINT">     1</i>
 </incar>
 <kpoints>
  <generation param="Monkhorst-Pack">
   <v type="int" name="divisions">       2        2        2 </v>
   <v name="usershift">      0.00000000       0.00000000       0.00000000 </v>
   <v name="genvec1">      0.50000000      -0.00000000       0.00000000 </v>
   <v name="genvec2">     -0.00000000       0.50000000       0.00000000 </v>
   <v name="genvec3">      0.00000000       0.00000000       0.50000000 </v>
   <v name="shift">      0.50000000       0.50000000       0.50000000 </v>
  </generation>
  <varray name="kpointlist" >
   <v>       0.25000000       0.25000000       0.25000000 </v>
   <v>      -0.25000000       0.25000000       0.25000000 </v>
   <v>       0.25000000      -0.25000000       0.25000000 </v>
   <v>      -0.25000000      -0.25000000       0.25000000 </v>
  </varray>
  <varray name="weights" >
   <v>       0.25000000 </v>
   <v>       0.25000000 </v>
   <v>       0.25000000 </v>
   <v>       0.25000000 </v>
  </varray>
 </kpoints>
 <parameters>
  <separator name="general" >
   <i type="string" name="SYSTEM">STF</i>
   <i type="logical" name="LCOMPAT"> F  </i>
  </separator>
  <separator name="electronic" >
   <i type="string" name="PREC">normal</i>
   <i name="ENMAX">    520.00000000</i>
   <i name="ENAUG">    605.39200000</i>
   <i name="EDIFF">      0.00010000</i>
   <i type="int" name="IALGO">    68</i>
   <i type="int" name="IWAVPR">    11</i>
   <i type="int" name="NBANDS">   768</i>
   <i name="NELECT">   1032.00000000</i>
   <i type="int" name="TURBO">     0</i>
   <i type="int" name="IRESTART">     0</i>
   <i type="int" name="NREBOOT">     0</i>
   <i type="int" name="NMIN">     0</i>
   <i name="EREF">      0.00000000</i>
   <separator name="electronic smearing" >
    <i type="int" name="ISMEAR">     0</i>
    <i name="SIGMA">      0.05000000</i>
    <i name="KSPACING">      0.50000000</i>
    <i type="logical" name="KGAMMA"> T  </i>
   </separator>
   <separator name="electronic projectors" >
    <i type="logical" name="LREAL"> T  </i>
    <v name="ROPT">     -0.00050000     -0.00050000     -0.00050000     -0.00050000</v>
    <i type="int" name="LMAXPAW">  -100</i>
    <i type="int" name="LMAXMIX">     4</i>
    <i type="logical" name="NLSPLINE"> F  </i>
   </separator>
   <separator name="electronic startup" >
    <i type="int" name="ISTART">     1</i>
    <i type="int" name="ICHARG">     0</i>
    <i type="int" name="INIWAV">     1</i>
   </separator>
   <separator name="electronic spin" >
    <i type="int" name="ISPIN">     2</i>
    <i type="logical" name="LNONCOLLINEAR"> F  </i>
    <v name="MAGMOM">      0.60000000      0.60000000      0.60000000      0.60000000      0.60000000      0.60000000      0.60000000      0.60000000      0.60000000      0.60000000      0.60000000      0.60000000      0.60000000      0.60000000      0.60000000      0.60000000      0.60000000      0.60000000      0.60000000      0.60000000
      0.60000000      0.60000000      0.60000000      0.60000000      0.60000000      0.60000000      0.60000000      0.60000000      0.60000000      0.60000000      0.60000000      0.60000000      0.60000000      0.60000000      0.60000000      0.60000000      0.60000000      0.60000000      0.60000000      0.60000000
      0.60000000      0.60000000      0.60000000      0.60000000      0.60000000      0.60000000      0.60000000      0.60000000      0.60000000      0.60000000      0.60000000      0.60000000      0.60000000      0.60000000      0.60000000      0.60000000      5.00000000      5.00000000      5.00000000      5.00000000
      5.00000000      5.00000000      5.00000000      5.00000000      0.60000000      0.60000000      0.60000000      0.60000000      0.60000000      0.60000000      0.60000000      0.60000000      0.60000000      0.60000000      0.60000000      0.60000000      0.60000000      0.60000000      0.60000000      0.60000000
      0.60000000      0.60000000      0.60000000      0.60000000      0.60000000      0.60000000      0.60000000      0.60000000      0.60000000      0.60000000      0.60000000      0.60000000      0.60000000      0.60000000      0.60000000      0.60000000      0.60000000      0.60000000      0.60000000      0.60000000
      0.60000000      0.60000000      0.60000000      0.60000000      0.60000000      0.60000000      0.60000000      0.60000000      0.60000000      0.60000000      0.60000000      0.60000000      0.60000000      0.60000000      0.60000000      0.60000000      0.60000000      0.60000000      0.60000000      0.60000000
      0.60000000      0.60000000      0.60000000      0.60000000      0.60000000      0.60000000      0.60000000      0.60000000      0.60000000      0.60000000      0.60000000      0.60000000      0.60000000      0.60000000      0.60000000      0.60000000      0.60000000      0.60000000      0.60000000      0.60000000
      0.60000000      0.60000000      0.60000000      0.60000000      0.60000000      0.60000000      0.60000000      0.60000000      0.60000000      0.60000000      0.60000000      0.60000000      0.60000000      0.60000000      0.60000000      0.60000000</v>
    <i name="NUPDOWN">     -1.00000000</i>
    <i type="logical" name="LSORBIT"> F  </i>
    <v name="SAXIS">      0.00000000      0.00000000      1.00000000</v>
    <i type="logical" name="LSPIRAL"> F  </i>
    <v name="QSPIRAL">      0.00000000      0.00000000      0.00000000</v>
    <i type="logical" name="LZEROZ"> F  </i>
   </separator>
   <separator name="electronic exchange-correlation" >
    <i type="logical" name="LASPH"> F  </i>
    <i type="logical" name="LMETAGGA"> F  </i>
   </separator>
   <separator name="electronic convergence" >
    <i type="int" name="NELM">    40</i>
    <i type="int" name="NELMDL">     0</i>
    <i type="int" name="NELMIN">     8</i>
    <i name="ENINI">    520.00000000</i>
    <separator name="electronic convergence detail" >
     <i type="logical" name="LDIAG"> T  </i>
     <i type="logical" name="LSUBROT"> F  </i>
     <i name="WEIMIN">      0.00100000</i>
     <i name="EBREAK">      0.00000003</i>
     <i name="DEPER">      0.30000000</i>
     <i type="int" name="NRMM">     4</i>
     <i name="TIME">      0.40000000</i>
    </separator>
   </separator>
   <separator name="electronic mixer" >
    <i name="AMIX">      0.40000000</i>
    <i name="BMIX">      1.00000000</i>
    <i name="AMIN">      0.10000000</i>
    <i name="AMIX_MAG">      1.60000000</i>
    <i name="BMIX_MAG">      1.00000000</i>
    <separator name="electronic mixer details" >
     <i type="int" name="IMIX">     4</i>
     <i type="logical" name="MIXFIRST"> F  </i>
     <i type="int" name="MAXMIX">   -45</i>
     <i name="WC">    100.00000000</i>
     <i type="int" name="INIMIX">     1</i>
     <i type="int" name="MIXPRE">     1</i>
     <i type="int" name="MREMOVE">     5</i>
    </separator>
   </separator>
   <separator name="electronic dipolcorrection" >
    <i type="logical" name="LDIPOL"> F  </i>
    <i type="logical" name="LMONO"> F  </i>
    <i type="int" name="IDIPOL">     0</i>
    <i name="EPSILON">      1.00000000</i>
    <v name="DIPOL">   -100.00000000   -100.00000000   -100.00000000</v>
    <i name="EFIELD">      0.00000000</i>
   </separator>
  </separator>
  <separator name="grids" >
   <i type="int" name="NGX">    64</i>
   <i type="int" name="NGY">    64</i>
   <i type="int" name="NGZ">    90</i>
   <i type="int" name="NGXF">   128</i>
   <i type="int" name="NGYF">   128</i>
   <i type="int" name="NGZF">   180</i>
   <i type="logical" name="ADDGRID"> F  </i>
  </separator>
  <separator name="ionic" >
   <i type="int" name="NSW">    30</i>
   <i type="int" name="IBRION">     2</i>
   <i type="int" name="ISIF">     3</i>
   <i name="PSTRESS">      0.00000000</i>
   <i name="EDIFFG">     -0.03000000</i>
   <i type="int" name="NFREE">     1</i>
   <i name="POTIM">      0.50000000</i>
   <i name="SMASS">     -3.00000000</i>
   <i name="SCALEE">      1.00000000</i>
  </separator>
  <separator name="ionic md" >
   <i name="TEBEG">      0.00010000</i>
   <i name="TEEND">      0.00010000</i>
   <i type="int" name="NBLOCK">     1</i>
   <i type="int" name="KBLOCK">    30</i>
   <i type="int" name="NPACO">   256</i>
   <i name="APACO">     16.00000000</i>
  </separator>
  <separator name="symmetry" >
   <i type="int" name="ISYM">     2</i>
   <i name="SYMPREC">      0.00001000</i>
  </separator>
  <separator name="dos" >
   <i type="logical" name="LORBIT"> F  </i>
   <v name="RWIGS">     -1.00000000     -1.00000000     -1.00000000     -1.00000000</v>
   <i type="int" name="NEDOS">   301</i>
   <i name="EMIN">     10.00000000</i>
   <i name="EMAX">    -10.00000000</i>
   <i name="EFERMI">      0.00000000</i>
  </separator>
  <separator name="writing" >
   <i type="int" name="NWRITE">     2</i>
   <i type="logical" name="LWAVE"> T  </i>
   <i type="logical" name="LCHARG"> T  </i>
   <i type="logical" name="LPARD"> F  </i>
   <i type="logical" name="LVTOT"> F  </i>
   <i type="logical" name="LVHAR"> F  </i>
   <i type="logical" name="LELF"> F  </i>
   <i type="logical" name="LOPTICS"> F  </i>
   <v name="STM">      0.00000000      0.00000000      0.00000000      0.00000000      0.00000000      0.00000000      0.00000000</v>
  </separator>
  <separator name="performance" >
   <i type="int" name="NPAR">     2</i>
   <i type="int" name="NSIM">     4</i>
   <i type="int" name="NBLK">    -1</i>
   <i type="logical" name="LPLANE"> T  </i>
   <i type="logical" name="LSCALAPACK"> T  </i>
   <i type="logical" name="LSCAAWARE"> F  </i>
   <i type="logical" name="LSCALU"> F  </i>
   <i type="logical" name="LASYNC"> F  </i>
   <i type="logical" name="LORBITALREAL"> F  </i>
  </separator>
  <separator name="miscellaneous" >
   <i type="int" name="IDIOT">     3</i>
   <i type="logical" name="LMUSIC"> F  </i>
   <v name="POMASS">     87.62000000     47.88000000     55.84700000     16.00000000</v>
   <v name="DARWINR">      0.00000000      0.00000000      0.00000000      0.00000000</v>
   <v name="DARWINV">      1.00000000      1.00000000      1.00000000      1.00000000</v>
   <i type="logical" name="LCORR"> T  </i>
  </separator>
  <i type="logical" name="GGA_COMPAT"> T  </i>
  <i type="logical" name="LBERRY"> F  </i>
  <i type="int" name="ICORELEVEL">     0</i>
  <i type="logical" name="LDAU"> T  </i>
  <v type="int" name="LDAUTYPE">     2</v>
  <v type="int" name="LDAUL">     0</v>
  <v name="LDAUU">      0.00000000</v>
  <v name="LDAUJ">      0.00000000</v>
  <i type="int" name="LDAUPRINT">     1</i>
  <i type="int" name="I_CONSTRAINED_M">     0</i>
  <separator name="electronic exchange-correlation" >
   <i type="string" name="GGA">--</i>
   <i type="int" name="VOSKOWN">     0</i>
   <i type="logical" name="LHFCALC"> F  </i>
   <i type="string" name="PRECFOCK"></i>
   <i type="logical" name="LSYMGRAD"> F  </i>
   <i type="logical" name="LHFONE"> F  </i>
   <i type="logical" name="LRHFCALC"> F  </i>
   <i type="logical" name="LTHOMAS"> F  </i>
   <i type="logical" name="LMODELHF"> F  </i>
   <i name="ENCUT4O">     -1.00000000</i>
   <i type="int" name="EXXOEP">     0</i>
   <i type="int" name="FOURORBIT">     0</i>
   <i name="AEXX">      0.00000000</i>
   <i name="HFALPHA">      0.00000000</i>
   <i name="MCALPHA">      0.00000000</i>
   <i name="ALDAX">      1.00000000</i>
   <i name="AGGAX">      1.00000000</i>
   <i name="ALDAC">      1.00000000</i>
   <i name="AGGAC">      1.00000000</i>
   <i type="int" name="NKREDX">     1</i>
   <i type="int" name="NKREDY">     1</i>
   <i type="int" name="NKREDZ">     1</i>
   <i type="logical" name="SHIFTRED"> F  </i>
   <i type="logical" name="ODDONLY"> F  </i>
   <i type="logical" name="EVENONLY"> F  </i>
   <i type="int" name="LMAXFOCK">     0</i>
   <i type="int" name="NMAXFOCKAE">     0</i>
   <i type="logical" name="LFOCKAEDFT"> F  </i>
   <i name="HFSCREEN">      0.00000000</i>
   <i name="HFSCREENC">      0.00000000</i>
   <i type="int" name="NBANDSGWLOW">     0</i>
  </separator>
  <separator name="vdW DFT" >
   <i type="logical" name="LUSE_VDW"> F  </i>
   <i name="Zab_VDW">     -0.84910000</i>
   <i name="PARAM1">      0.12340000</i>
   <i name="PARAM2">      1.00000000</i>
   <i name="PARAM3">      0.00000000</i>
  </separator>
  <separator name="model GW" >
   <i type="int" name="MODEL_GW">     0</i>
   <i name="MODEL_EPS0">      7.73287503</i>
   <i name="MODEL_ALPHA">      1.00000000</i>
  </separator>
  <separator name="linear response parameters" >
   <i type="logical" name="LEPSILON"> F  </i>
   <i type="logical" name="LRPA"> F  </i>
   <i type="logical" name="LNABLA"> F  </i>
   <i type="logical" name="LVEL"> F  </i>
   <i type="int" name="KINTER">     0</i>
   <i name="CSHIFT">      0.10000000</i>
   <i name="OMEGAMAX">     -1.00000000</i>
   <i name="DEG_THRESHOLD">      0.00200000</i>
  </separator>
  <separator name="orbital magnetization" >
   <i type="logical" name="NUCIND"> F  </i>
   <v name="MAGPOS">      0.00000000      0.00000000      0.00000000</v>
   <i type="logical" name="LNICSALL"> T  </i>
   <i type="logical" name="ORBITALMAG"> F  </i>
   <i type="logical" name="LMAGBLOCH"> F  </i>
   <i type="logical" name="LCHIMAG"> F  </i>
   <i type="logical" name="LGAUGE"> T  </i>
   <i type="int" name="MAGATOM">     0</i>
   <v name="MAGDIPOL">      0.00000000      0.00000000      0.00000000</v>
   <v name="AVECCONST">      0.00000000      0.00000000      0.00000000</v>
  </separator>
  <separator name="response functions" >
   <i type="logical" name="LADDER"> F  </i>
   <i type="logical" name="LFXC"> F  </i>
   <i type="logical" name="LHARTREE"> T  </i>
   <i type="int" name="IBSE">     0</i>
   <v type="int" name="KPOINT">    -1     0     0     0</v>
   <i type="logical" name="LTCTE"> F  </i>
   <i type="logical" name="LTETE"> F  </i>
   <i type="logical" name="LTRIPLET"> F  </i>
   <i type="logical" name="LFXCEPS"> F  </i>
   <i type="logical" name="LFXHEG"> F  </i>
   <i type="int" name="NATURALO">     0</i>
   <i type="logical" name="L2ORDER"> F  </i>
   <i type="logical" name="LUSEW"> F  </i>
   <i name="ENCUTGW">     -2.00000000</i>
   <i name="ENCUTGWSOFT">     -2.00000000</i>
   <i name="ENCUTLF">     -1.00000000</i>
   <i type="int" name="LMAXMP2">    -1</i>
   <i name="SCISSOR">      0.00000000</i>
   <i type="int" name="NOMEGA">     0</i>
   <i type="int" name="NOMEGAR">     0</i>
   <i type="int" name="NBANDSGW">    -1</i>
   <i type="int" name="NBANDSO">    -1</i>
   <i type="int" name="NBANDSV">    -1</i>
   <i type="int" name="NELM">    40</i>
   <i type="int" name="NELMHF">     1</i>
   <i type="int" name="DIM">     3</i>
   <i type="int" name="ANTIRES">     0</i>
   <i name="OMEGAMAX">    -30.00000000</i>
   <i name="OMEGAMIN">    -30.00000000</i>
   <i name="OMEGATL">   -200.00000000</i>
   <i type="int" name="OMEGAGRID">     0</i>
   <i name="CSHIFT">     -0.10000000</i>
   <i type="logical" name="SELFENERGY"> F  </i>
   <i type="logical" name="LSPECTRAL"> F  </i>
   <i type="logical" name="LSPECTRALGW"> F  </i>
   <i type="logical" name="LSINGLES"> F  </i>
   <i type="logical" name="LFERMIGW"> F  </i>
   <i type="logical" name="ODDONLYGW"> F  </i>
   <i type="logical" name="EVENONLYGW"> F  </i>
   <i type="int" name="NKREDLFX">     1</i>
   <i type="int" name="NKREDLFY">     1</i>
   <i type="int" name="NKREDLFZ">     1</i>
   <i type="int" name="MAXMEM">  1800</i>
   <i type="int" name="TELESCOPE">     0</i>
   <i type="int" name="TAUPAR">     1</i>
   <i type="int" name="OMEGAPAR">    -1</i>
   <i name="LAMBDA">      1.00000000</i>
  </separator>
  <separator name="External order field" >
   <i name="OFIELD_KAPPA">      0.00000000</i>
   <v name="OFIELD_K">      0.00000000      0.00000000      0.00000000</v>
   <i name="OFIELD_Q6_NEAR">      0.00000000</i>
   <i name="OFIELD_Q6_FAR">      0.00000000</i>
   <i name="OFIELD_A">      0.00000000</i>
  </separator>
 </parameters>
 <atominfo>
  <atoms>     156 </atoms>
  <types>       4 </types>
  <array name="atoms" >
   <dimension dim="1">ion</dimension>
   <field type="string">element</field>
   <field type="int">atomtype</field>
   <set>
    <rc><c>Sr</c><c>   1</c></rc>
    <rc><c>Sr</c><c>   1</c></rc>
    <rc><c>Sr</c><c>   1</c></rc>
    <rc><c>Sr</c><c>   1</c></rc>
    <rc><c>Sr</c><c>   1</c></rc>
    <rc><c>Sr</c><c>   1</c></rc>
    <rc><c>Sr</c><c>   1</c></rc>
    <rc><c>Sr</c><c>   1</c></rc>
    <rc><c>Sr</c><c>   1</c></rc>
    <rc><c>Sr</c><c>   1</c></rc>
    <rc><c>Sr</c><c>   1</c></rc>
    <rc><c>Sr</c><c>   1</c></rc>
    <rc><c>Sr</c><c>   1</c></rc>
    <rc><c>Sr</c><c>   1</c></rc>
    <rc><c>Sr</c><c>   1</c></rc>
    <rc><c>Sr</c><c>   1</c></rc>
    <rc><c>Sr</c><c>   1</c></rc>
    <rc><c>Sr</c><c>   1</c></rc>
    <rc><c>Sr</c><c>   1</c></rc>
    <rc><c>Sr</c><c>   1</c></rc>
    <rc><c>Sr</c><c>   1</c></rc>
    <rc><c>Sr</c><c>   1</c></rc>
    <rc><c>Sr</c><c>   1</c></rc>
    <rc><c>Sr</c><c>   1</c></rc>
    <rc><c>Sr</c><c>   1</c></rc>
    <rc><c>Sr</c><c>   1</c></rc>
    <rc><c>Sr</c><c>   1</c></rc>
    <rc><c>Sr</c><c>   1</c></rc>
    <rc><c>Sr</c><c>   1</c></rc>
    <rc><c>Sr</c><c>   1</c></rc>
    <rc><c>Sr</c><c>   1</c></rc>
    <rc><c>Sr</c><c>   1</c></rc>
    <rc><c>Ti</c><c>   2</c></rc>
    <rc><c>Ti</c><c>   2</c></rc>
    <rc><c>Ti</c><c>   2</c></rc>
    <rc><c>Ti</c><c>   2</c></rc>
    <rc><c>Ti</c><c>   2</c></rc>
    <rc><c>Ti</c><c>   2</c></rc>
    <rc><c>Ti</c><c>   2</c></rc>
    <rc><c>Ti</c><c>   2</c></rc>
    <rc><c>Ti</c><c>   2</c></rc>
    <rc><c>Ti</c><c>   2</c></rc>
    <rc><c>Ti</c><c>   2</c></rc>
    <rc><c>Ti</c><c>   2</c></rc>
    <rc><c>Ti</c><c>   2</c></rc>
    <rc><c>Ti</c><c>   2</c></rc>
    <rc><c>Ti</c><c>   2</c></rc>
    <rc><c>Ti</c><c>   2</c></rc>
    <rc><c>Ti</c><c>   2</c></rc>
    <rc><c>Ti</c><c>   2</c></rc>
    <rc><c>Ti</c><c>   2</c></rc>
    <rc><c>Ti</c><c>   2</c></rc>
    <rc><c>Ti</c><c>   2</c></rc>
    <rc><c>Ti</c><c>   2</c></rc>
    <rc><c>Ti</c><c>   2</c></rc>
    <rc><c>Ti</c><c>   2</c></rc>
    <rc><c>Fe</c><c>   3</c></rc>
    <rc><c>Fe</c><c>   3</c></rc>
    <rc><c>Fe</c><c>   3</c></rc>
    <rc><c>Fe</c><c>   3</c></rc>
    <rc><c>Fe</c><c>   3</c></rc>
    <rc><c>Fe</c><c>   3</c></rc>
    <rc><c>Fe</c><c>   3</c></rc>
    <rc><c>Fe</c><c>   3</c></rc>
    <rc><c>O </c><c>   4</c></rc>
    <rc><c>O </c><c>   4</c></rc>
    <rc><c>O </c><c>   4</c></rc>
    <rc><c>O </c><c>   4</c></rc>
    <rc><c>O </c><c>   4</c></rc>
    <rc><c>O </c><c>   4</c></rc>
    <rc><c>O </c><c>   4</c></rc>
    <rc><c>O </c><c>   4</c></rc>
    <rc><c>O </c><c>   4</c></rc>
    <rc><c>O </c><c>   4</c></rc>
    <rc><c>O </c><c>   4</c></rc>
    <rc><c>O </c><c>   4</c></rc>
    <rc><c>O </c><c>   4</c></rc>
    <rc><c>O </c><c>   4</c></rc>
    <rc><c>O </c><c>   4</c></rc>
    <rc><c>O </c><c>   4</c></rc>
    <rc><c>O </c><c>   4</c></rc>
    <rc><c>O </c><c>   4</c></rc>
    <rc><c>O </c><c>   4</c></rc>
    <rc><c>O </c><c>   4</c></rc>
    <rc><c>O </c><c>   4</c></rc>
    <rc><c>O </c><c>   4</c></rc>
    <rc><c>O </c><c>   4</c></rc>
    <rc><c>O </c><c>   4</c></rc>
    <rc><c>O </c><c>   4</c></rc>
    <rc><c>O </c><c>   4</c></rc>
    <rc><c>O </c><c>   4</c></rc>
    <rc><c>O </c><c>   4</c></rc>
    <rc><c>O </c><c>   4</c></rc>
    <rc><c>O </c><c>   4</c></rc>
    <rc><c>O </c><c>   4</c></rc>
    <rc><c>O </c><c>   4</c></rc>
    <rc><c>O </c><c>   4</c></rc>
    <rc><c>O </c><c>   4</c></rc>
    <rc><c>O </c><c>   4</c></rc>
    <rc><c>O </c><c>   4</c></rc>
    <rc><c>O </c><c>   4</c></rc>
    <rc><c>O </c><c>   4</c></rc>
    <rc><c>O </c><c>   4</c></rc>
    <rc><c>O </c><c>   4</c></rc>
    <rc><c>O </c><c>   4</c></rc>
    <rc><c>O </c><c>   4</c></rc>
    <rc><c>O </c><c>   4</c></rc>
    <rc><c>O </c><c>   4</c></rc>
    <rc><c>O </c><c>   4</c></rc>
    <rc><c>O </c><c>   4</c></rc>
    <rc><c>O </c><c>   4</c></rc>
    <rc><c>O </c><c>   4</c></rc>
    <rc><c>O </c><c>   4</c></rc>
    <rc><c>O </c><c>   4</c></rc>
    <rc><c>O </c><c>   4</c></rc>
    <rc><c>O </c><c>   4</c></rc>
    <rc><c>O </c><c>   4</c></rc>
    <rc><c>O </c><c>   4</c></rc>
    <rc><c>O </c><c>   4</c></rc>
    <rc><c>O </c><c>   4</c></rc>
    <rc><c>O </c><c>   4</c></rc>
    <rc><c>O </c><c>   4</c></rc>
    <rc><c>O </c><c>   4</c></rc>
    <rc><c>O </c><c>   4</c></rc>
    <rc><c>O </c><c>   4</c></rc>
    <rc><c>O </c><c>   4</c></rc>
    <rc><c>O </c><c>   4</c></rc>
    <rc><c>O </c><c>   4</c></rc>
    <rc><c>O </c><c>   4</c></rc>
    <rc><c>O </c><c>   4</c></rc>
    <rc><c>O </c><c>   4</c></rc>
    <rc><c>O </c><c>   4</c></rc>
    <rc><c>O </c><c>   4</c></rc>
    <rc><c>O </c><c>   4</c></rc>
    <rc><c>O </c><c>   4</c></rc>
    <rc><c>O </c><c>   4</c></rc>
    <rc><c>O </c><c>   4</c></rc>
    <rc><c>O </c><c>   4</c></rc>
    <rc><c>O </c><c>   4</c></rc>
    <rc><c>O </c><c>   4</c></rc>
    <rc><c>O </c><c>   4</c></rc>
    <rc><c>O </c><c>   4</c></rc>
    <rc><c>O </c><c>   4</c></rc>
    <rc><c>O </c><c>   4</c></rc>
    <rc><c>O </c><c>   4</c></rc>
    <rc><c>O </c><c>   4</c></rc>
    <rc><c>O </c><c>   4</c></rc>
    <rc><c>O </c><c>   4</c></rc>
    <rc><c>O </c><c>   4</c></rc>
    <rc><c>O </c><c>   4</c></rc>
    <rc><c>O </c><c>   4</c></rc>
    <rc><c>O </c><c>   4</c></rc>
    <rc><c>O </c><c>   4</c></rc>
    <rc><c>O </c><c>   4</c></rc>
    <rc><c>O </c><c>   4</c></rc>
    <rc><c>O </c><c>   4</c></rc>
   </set>
  </array>
  <array name="atomtypes" >
   <dimension dim="1">type</dimension>
   <field type="int">atomspertype</field>
   <field type="string">element</field>
   <field>mass</field>
   <field>valence</field>
   <field type="string">pseudopotential</field>
   <set>
    <rc><c>  32</c><c>Sr</c><c>     87.62000000</c><c>     10.00000000</c><c>  PAW_PBE Sr_sv 07Sep2000               </c></rc>
    <rc><c>  24</c><c>Ti</c><c>     47.88000000</c><c>      4.00000000</c><c>  PAW_PBE Ti 08Apr2002                  </c></rc>
    <rc><c>   8</c><c>Fe</c><c>     55.84700000</c><c>      8.00000000</c><c>  PAW_PBE Fe 06Sep2000                  </c></rc>
    <rc><c>  92</c><c>O </c><c>     16.00000000</c><c>      6.00000000</c><c>  PAW_PBE O 08Apr2002                   </c></rc>
   </set>
  </array>
 </atominfo>
 <structure name="initialpos" >
  <crystal>
   <varray name="basis" >
    <v>      11.24719300       0.01341950       0.00877555 </v>
    <v>       0.01340881      11.24320085       0.00567111 </v>
    <v>       0.01247092       0.00806835      15.89941765 </v>
   </varray>
   <i name="volume">   2010.54750859 </i>
   <varray name="rec_basis" >
    <v>       0.08891125      -0.00010600      -0.00006968 </v>
    <v>      -0.00010609       0.08894279      -0.00004505 </v>
    <v>      -0.00004904      -0.00003167       0.06289544 </v>
   </varray>
  </crystal>
  <varray name="positions" >
   <v>       0.00840551       0.25103677       0.12248797 </v>
   <v>       0.99747424       0.24132769       0.62225517 </v>
   <v>       0.00768507       0.74813272       0.12588673 </v>
   <v>       0.00891269       0.75868373       0.61598124 </v>
   <v>       0.49201346       0.25339914       0.12190218 </v>
   <v>       0.50201486       0.24399623       0.62172603 </v>
   <v>       0.49401055       0.74512742       0.12424614 </v>
   <v>       0.48964794       0.75600074       0.61572548 </v>
   <v>       0.01135463       0.24558540       0.37522512 </v>
   <v>       0.99744644       0.24263630       0.87847884 </v>
   <v>       0.01645283       0.75184598       0.37203633 </v>
   <v>       0.00389911       0.75654997       0.88538088 </v>
   <v>       0.49089025       0.24996560       0.37620909 </v>
   <v>       0.50219229       0.24711528       0.88073486 </v>
   <v>       0.48637087       0.74867432       0.37336282 </v>
   <v>       0.49695713       0.75385294       0.88530885 </v>
   <v>       0.24993252       0.99869853       0.12665490 </v>
   <v>       0.24419451       0.00120644       0.62207858 </v>
   <v>       0.25152062       0.49805242       0.12846274 </v>
   <v>       0.24518723       0.50111942       0.61750870 </v>
   <v>       0.75108063       0.00144122       0.12052105 </v>
   <v>       0.75182728       0.01187138       0.62520911 </v>
   <v>       0.74805396       0.49907244       0.11916945 </v>
   <v>       0.74650263       0.49002881       0.62393237 </v>
   <v>       0.24890148       0.99631529       0.37347976 </v>
   <v>       0.24601989       0.00358111       0.87882334 </v>
   <v>       0.25087037       0.49956597       0.36956002 </v>
   <v>       0.24530059       0.49967159       0.88261484 </v>
   <v>       0.75506190       0.00768514       0.37559205 </v>
   <v>       0.74941746       0.00877024       0.87690933 </v>
   <v>       0.74823517       0.49587378       0.37750954 </v>
   <v>       0.74632181       0.49607931       0.87873037 </v>
   <v>       0.99946981       0.99992127       0.00000216 </v>
   <v>       0.00082269       0.99932534       0.49982417 </v>
   <v>       0.99999889       0.50080194       0.49485634 </v>
   <v>       0.50004749       0.99992139       0.00112153 </v>
   <v>       0.49897182       0.99951018       0.49802510 </v>
   <v>       0.49908514       0.50272622       0.49866335 </v>
   <v>       0.24975090       0.25412547       0.00078934 </v>
   <v>       0.25032598       0.25029796       0.50052411 </v>
   <v>       0.24897473       0.74540590       0.00387589 </v>
   <v>       0.75161980       0.25514563       0.99866793 </v>
   <v>       0.75151615       0.25207172       0.50076894 </v>
   <v>       0.75001930       0.74734266       0.99670031 </v>
   <v>       0.74765159       0.74919424       0.51113466 </v>
   <v>       0.24340419       0.24554553       0.74944519 </v>
   <v>       0.26217756       0.75792351       0.75035797 </v>
   <v>       0.73898006       0.24367877       0.24913695 </v>
   <v>       0.75056970       0.75123480       0.24186149 </v>
   <v>       0.76422877       0.75757418       0.75289922 </v>
   <v>       0.00288100       0.00003731       0.24999452 </v>
   <v>       0.98921938       0.48690648       0.74898553 </v>
   <v>       0.49349168       0.99481640       0.25038678 </v>
   <v>       0.50326066       0.00471019       0.74986954 </v>
   <v>       0.49968964       0.49954027       0.24889080 </v>
   <v>       0.48994252       0.48483190       0.74992963 </v>
   <v>       0.99832793       0.50057823       0.00445145 </v>
   <v>       0.50099166       0.50205041       0.99973868 </v>
   <v>       0.24888253       0.74843410       0.49716448 </v>
   <v>       0.25020915       0.24977086       0.24893036 </v>
   <v>       0.25239619       0.75027343       0.25024652 </v>
   <v>       0.74738343       0.24564585       0.75083663 </v>
   <v>       0.99971588       0.00308074       0.75071596 </v>
   <v>       0.00877181       0.50987173       0.25006574 </v>
   <v>       0.11681817       0.12906213       0.24529493 </v>
   <v>       0.10927458       0.14091497       0.74715999 </v>
   <v>       0.11769005       0.63525158       0.24849623 </v>
   <v>       0.61318112       0.13901991       0.25019342 </v>
   <v>       0.60628794       0.13832620       0.74934370 </v>
   <v>       0.61608809       0.64302472       0.25975015 </v>
   <v>       0.39256078       0.36274325       0.25037071 </v>
   <v>       0.39398911       0.35132688       0.75033277 </v>
   <v>       0.38869827       0.86333050       0.24907317 </v>
   <v>       0.39421658       0.85594983       0.74929839 </v>
   <v>       0.89319203       0.35436768       0.75037107 </v>
   <v>       0.87775393       0.86470005       0.26873166 </v>
   <v>       0.89495835       0.85244023       0.75145727 </v>
   <v>       0.36591340       0.11187388       0.24660315 </v>
   <v>       0.35768954       0.10227251       0.74642669 </v>
   <v>       0.36798926       0.61173791       0.25032012 </v>
   <v>       0.35432305       0.60391195       0.74865354 </v>
   <v>       0.87030559       0.12853252       0.24996698 </v>
   <v>       0.85653893       0.10457802       0.75035783 </v>
   <v>       0.85900504       0.61806008       0.26204918 </v>
   <v>       0.84411333       0.60250097       0.74728308 </v>
   <v>       0.12463055       0.37740899       0.25162257 </v>
   <v>       0.14262241       0.39625039       0.74817405 </v>
   <v>       0.13079098       0.88442561       0.24944049 </v>
   <v>       0.13674199       0.87690106       0.74975475 </v>
   <v>       0.65211947       0.39443448       0.25041250 </v>
   <v>       0.64047754       0.39609613       0.74946384 </v>
   <v>       0.63916532       0.88627749       0.26347908 </v>
   <v>       0.63758806       0.87734608       0.75105366 </v>
   <v>       0.36889456       0.38290629       0.99191372 </v>
   <v>       0.37065924       0.38417821       0.50890394 </v>
   <v>       0.36578148       0.88312365       0.99234662 </v>
   <v>       0.36927568       0.88366546       0.50867984 </v>
   <v>       0.86765479       0.38478661       0.98714778 </v>
   <v>       0.86791100       0.38663804       0.51256473 </v>
   <v>       0.86259252       0.88403607       0.98953577 </v>
   <v>       0.86156949       0.88134806       0.49767124 </v>
   <v>       0.13310764       0.11478427       0.00752636 </v>
   <v>       0.13417122       0.11735572       0.50091087 </v>
   <v>       0.13293913       0.61506968       0.01256252 </v>
   <v>       0.12992796       0.61351581       0.48847043 </v>
   <v>       0.63455768       0.11757787       0.00660180 </v>
   <v>       0.63491657       0.11968264       0.49251627 </v>
   <v>       0.63524033       0.61993359       0.00636753 </v>
   <v>       0.63630250       0.62325737       0.48359887 </v>
   <v>       0.11534884       0.36589541       0.99499880 </v>
   <v>       0.11550246       0.36701342       0.50461696 </v>
   <v>       0.11496744       0.86510388       0.00174248 </v>
   <v>       0.11518162       0.86783820       0.49956490 </v>
   <v>       0.61782294       0.36706906       0.99947193 </v>
   <v>       0.61866423       0.36999531       0.50181628 </v>
   <v>       0.61647826       0.86598644       0.99861438 </v>
   <v>       0.62085739       0.86418536       0.48599639 </v>
   <v>       0.38469066       0.13220826       0.00125173 </v>
   <v>       0.38551268       0.13426287       0.50474265 </v>
   <v>       0.38314032       0.63480816       0.99915810 </v>
   <v>       0.38481044       0.63209054       0.50171784 </v>
   <v>       0.88405857       0.13389203       0.00238854 </v>
   <v>       0.88358676       0.13474915       0.49938843 </v>
   <v>       0.88357769       0.63771200       0.00094736 </v>
   <v>       0.87944872       0.63982385       0.48893623 </v>
   <v>       0.98473288       0.98618123       0.12642936 </v>
   <v>       0.99736336       0.99743524       0.62325052 </v>
   <v>       0.97613140       0.48391337       0.13128382 </v>
   <v>       0.01075680       0.52769255       0.63005664 </v>
   <v>       0.50407208       0.99140537       0.12562253 </v>
   <v>       0.51407678       0.99701262       0.62363912 </v>
   <v>       0.50249570       0.50031801       0.12683660 </v>
   <v>       0.51929592       0.52454763       0.62957988 </v>
   <v>       0.00186716       0.00559144       0.37583745 </v>
   <v>       0.00666236       0.00414472       0.87670513 </v>
   <v>       0.98582053       0.47995963       0.37383812 </v>
   <v>       0.01630290       0.53061698       0.86303741 </v>
   <v>       0.48911330       0.00433201       0.37549722 </v>
   <v>       0.50435164       0.00332100       0.87434689 </v>
   <v>       0.49604536       0.49265729       0.37674364 </v>
   <v>       0.51555242       0.52233300       0.86683424 </v>
   <v>       0.25438509       0.25185021       0.37843353 </v>
   <v>       0.24758822       0.24172964       0.87321430 </v>
   <v>       0.25493373       0.75624240       0.37474717 </v>
   <v>       0.23597708       0.73468413       0.87170616 </v>
   <v>       0.76735198       0.26529628       0.37178152 </v>
   <v>       0.74471641       0.24352741       0.87593294 </v>
   <v>       0.73622581       0.73437958       0.87115308 </v>
   <v>       0.25437487       0.25902124       0.12252363 </v>
   <v>       0.24930280       0.24832193       0.62624206 </v>
   <v>       0.25682366       0.75660252       0.12437297 </v>
   <v>       0.23500214       0.73407073       0.62973315 </v>
   <v>       0.76533085       0.26549971       0.12824707 </v>
   <v>       0.74577341       0.24508511       0.62387017 </v>
   <v>       0.75618705       0.76053084       0.12556947 </v>
   <v>       0.73157810       0.73787895       0.62776282 </v>
  </varray>
 </structure>
 <calculation>
  <scstep>
   <time name="dav">  577.66  577.66</time>
   <time name="total">  584.86  584.99</time>
   <energy>
    <i name="alphaZ">   5613.07618429 </i>
    <i name="ewald"> -61032.18300582 </i>
    <i name="hartreedc"> -16470.82744681 </i>
    <i name="XCdc">   2962.54502077 </i>
    <i name="pawpsdc"> 112685.54997620 </i>
    <i name="pawaedc">-111584.72583807 </i>
    <i name="eentropy">     -0.00000000 </i>
    <i name="bandstr">  -7075.97305416 </i>
    <i name="atom">  73783.44779670 </i>
    <i name="e_fr_energy">  -1119.09036690 </i>
    <i name="e_wo_entrp">  -1119.09036690 </i>
    <i name="e_0_energy">  -1119.09036690 </i>
   </energy>
  </scstep>
  <scstep>
   <time name="diag">   65.12   65.12</time>
   <time name="diis">   62.80   62.82</time>
   <time name="orth">   33.37   33.37</time>
   <time name="total">  168.49  168.54</time>
   <energy>
    <i name="e_fr_energy">  -1119.09036638 </i>
    <i name="e_wo_entrp">  -1119.09036638 </i>
    <i name="e_0_energy">  -1119.09036638 </i>
   </energy>
  </scstep>
  <scstep>
   <time name="diag">   65.14   65.16</time>
   <time name="diis">   58.30   58.31</time>
   <time name="orth">   33.41   33.40</time>
   <time name="total">  164.06  164.16</time>
   <energy>
    <i name="e_fr_energy">  -1119.09036663 </i>
    <i name="e_wo_entrp">  -1119.09036663 </i>
    <i name="e_0_energy">  -1119.09036663 </i>
   </energy>
  </scstep>
  <scstep>
   <time name="diag">   65.14   65.16</time>
   <time name="diis">   48.04   48.05</time>
   <time name="orth">   33.37   33.37</time>
   <time name="total">  153.76  153.85</time>
   <energy>
    <i name="e_fr_energy">  -1119.09036657 </i>
    <i name="e_wo_entrp">  -1119.09036657 </i>
    <i name="e_0_energy">  -1119.09036657 </i>
   </energy>
  </scstep>
  <scstep>
   <time name="diag">   65.26   65.27</time>
   <time name="diis">   47.31   47.31</time>
   <time name="orth">   33.35   33.35</time>
   <time name="total">  153.13  153.17</time>
   <energy>
    <i name="e_fr_energy">  -1119.09036643 </i>
    <i name="e_wo_entrp">  -1119.09036643 </i>
    <i name="e_0_energy">  -1119.09036643 </i>
   </energy>
  </scstep>
  <scstep>
   <time name="diag">   65.16   65.16</time>
   <time name="diis">   44.05   44.06</time>
   <time name="orth">   33.39   33.38</time>
   <time name="total">  149.81  149.84</time>
   <energy>
    <i name="e_fr_energy">  -1119.09036631 </i>
    <i name="e_wo_entrp">  -1119.09036631 </i>
    <i name="e_0_energy">  -1119.09036631 </i>
   </energy>
  </scstep>
  <scstep>
   <time name="diag">   65.31   65.31</time>
   <time name="diis">   43.09   43.10</time>
   <time name="orth">   33.34   33.34</time>
   <time name="total">  148.96  149.02</time>
   <energy>
    <i name="e_fr_energy">  -1119.09036625 </i>
    <i name="e_wo_entrp">  -1119.09036625 </i>
    <i name="e_0_energy">  -1119.09036625 </i>
   </energy>
  </scstep>
  <scstep>
   <time name="diag">   65.08   65.08</time>
   <time name="diis">   41.85   41.86</time>
   <time name="orth">   33.35   33.35</time>
   <time name="total">  141.33  141.42</time>
   <energy>
    <i name="alphaZ">   5613.07618429 </i>
    <i name="ewald"> -61032.18300582 </i>
    <i name="hartreedc"> -16470.82738258 </i>
    <i name="XCdc">   2962.54407625 </i>
    <i name="pawpsdc"> 112684.39547447 </i>
    <i name="pawaedc">-111583.58721398 </i>
    <i name="eentropy">     -0.00000000 </i>
    <i name="bandstr">  -7075.95629555 </i>
    <i name="atom">  73783.44779670 </i>
    <i name="e_fr_energy">  -1119.09036622 </i>
    <i name="e_wo_entrp">  -1119.09036622 </i>
    <i name="e_0_energy">  -1119.09036622 </i>
   </energy>
  </scstep>
  <structure>
   <crystal>
    <varray name="basis" >
     <v>      11.24719300       0.01341950       0.00877555 </v>
     <v>       0.01340881      11.24320085       0.00567111 </v>
     <v>       0.01247092       0.00806835      15.89941765 </v>
    </varray>
    <i name="volume">   2010.54750859 </i>
    <varray name="rec_basis" >
     <v>       0.08891125      -0.00010600      -0.00006968 </v>
     <v>      -0.00010609       0.08894279      -0.00004505 </v>
     <v>      -0.00004904      -0.00003167       0.06289544 </v>
    </varray>
   </crystal>
   <varray name="positions" >
    <v>       0.00840551       0.25103677       0.12248797 </v>
    <v>       0.99747424       0.24132769       0.62225517 </v>
    <v>       0.00768507       0.74813272       0.12588673 </v>
    <v>       0.00891269       0.75868373       0.61598124 </v>
    <v>       0.49201346       0.25339914       0.12190218 </v>
    <v>       0.50201486       0.24399623       0.62172603 </v>
    <v>       0.49401055       0.74512742       0.12424614 </v>
    <v>       0.48964794       0.75600074       0.61572548 </v>
    <v>       0.01135463       0.24558540       0.37522512 </v>
    <v>       0.99744644       0.24263630       0.87847884 </v>
    <v>       0.01645283       0.75184598       0.37203633 </v>
    <v>       0.00389911       0.75654997       0.88538088 </v>
    <v>       0.49089025       0.24996560       0.37620909 </v>
    <v>       0.50219229       0.24711528       0.88073486 </v>
    <v>       0.48637087       0.74867432       0.37336282 </v>
    <v>       0.49695713       0.75385294       0.88530885 </v>
    <v>       0.24993252       0.99869853       0.12665490 </v>
    <v>       0.24419451       0.00120644       0.62207858 </v>
    <v>       0.25152062       0.49805242       0.12846274 </v>
    <v>       0.24518723       0.50111942       0.61750870 </v>
    <v>       0.75108063       0.00144122       0.12052105 </v>
    <v>       0.75182728       0.01187138       0.62520911 </v>
    <v>       0.74805396       0.49907244       0.11916945 </v>
    <v>       0.74650263       0.49002881       0.62393237 </v>
    <v>       0.24890148       0.99631529       0.37347976 </v>
    <v>       0.24601989       0.00358111       0.87882334 </v>
    <v>       0.25087037       0.49956597       0.36956002 </v>
    <v>       0.24530059       0.49967159       0.88261484 </v>
    <v>       0.75506190       0.00768514       0.37559205 </v>
    <v>       0.74941746       0.00877024       0.87690933 </v>
    <v>       0.74823517       0.49587378       0.37750954 </v>
    <v>       0.74632181       0.49607931       0.87873037 </v>
    <v>       0.99946981       0.99992127       0.00000216 </v>
    <v>       0.00082269       0.99932534       0.49982417 </v>
    <v>       0.99999889       0.50080194       0.49485634 </v>
    <v>       0.50004749       0.99992139       0.00112153 </v>
    <v>       0.49897182       0.99951018       0.49802510 </v>
    <v>       0.49908514       0.50272622       0.49866335 </v>
    <v>       0.24975090       0.25412547       0.00078934 </v>
    <v>       0.25032598       0.25029796       0.50052411 </v>
    <v>       0.24897473       0.74540590       0.00387589 </v>
    <v>       0.75161980       0.25514563       0.99866793 </v>
    <v>       0.75151615       0.25207172       0.50076894 </v>
    <v>       0.75001930       0.74734266       0.99670031 </v>
    <v>       0.74765159       0.74919424       0.51113466 </v>
    <v>       0.24340419       0.24554553       0.74944519 </v>
    <v>       0.26217756       0.75792351       0.75035797 </v>
    <v>       0.73898006       0.24367877       0.24913695 </v>
    <v>       0.75056970       0.75123480       0.24186149 </v>
    <v>       0.76422877       0.75757418       0.75289922 </v>
    <v>       0.00288100       0.00003731       0.24999452 </v>
    <v>       0.98921938       0.48690648       0.74898553 </v>
    <v>       0.49349168       0.99481640       0.25038678 </v>
    <v>       0.50326066       0.00471019       0.74986954 </v>
    <v>       0.49968964       0.49954027       0.24889080 </v>
    <v>       0.48994252       0.48483190       0.74992963 </v>
    <v>       0.99832793       0.50057823       0.00445145 </v>
    <v>       0.50099166       0.50205041       0.99973868 </v>
    <v>       0.24888253       0.74843410       0.49716448 </v>
    <v>       0.25020915       0.24977086       0.24893036 </v>
    <v>       0.25239619       0.75027343       0.25024652 </v>
    <v>       0.74738343       0.24564585       0.75083663 </v>
    <v>       0.99971588       0.00308074       0.75071596 </v>
    <v>       0.00877181       0.50987173       0.25006574 </v>
    <v>       0.11681817       0.12906213       0.24529493 </v>
    <v>       0.10927458       0.14091497       0.74715999 </v>
    <v>       0.11769005       0.63525158       0.24849623 </v>
    <v>       0.61318112       0.13901991       0.25019342 </v>
    <v>       0.60628794       0.13832620       0.74934370 </v>
    <v>       0.61608809       0.64302472       0.25975015 </v>
    <v>       0.39256078       0.36274325       0.25037071 </v>
    <v>       0.39398911       0.35132688       0.75033277 </v>
    <v>       0.38869827       0.86333050       0.24907317 </v>
    <v>       0.39421658       0.85594983       0.74929839 </v>
    <v>       0.89319203       0.35436768       0.75037107 </v>
    <v>       0.87775393       0.86470005       0.26873166 </v>
    <v>       0.89495835       0.85244023       0.75145727 </v>
    <v>       0.36591340       0.11187388       0.24660315 </v>
    <v>       0.35768954       0.10227251       0.74642669 </v>
    <v>       0.36798926       0.61173791       0.25032012 </v>
    <v>       0.35432305       0.60391195       0.74865354 </v>
    <v>       0.87030559       0.12853252       0.24996698 </v>
    <v>       0.85653893       0.10457802       0.75035783 </v>
    <v>       0.85900504       0.61806008       0.26204918 </v>
    <v>       0.84411333       0.60250097       0.74728308 </v>
    <v>       0.12463055       0.37740899       0.25162257 </v>
    <v>       0.14262241       0.39625039       0.74817405 </v>
    <v>       0.13079098       0.88442561       0.24944049 </v>
    <v>       0.13674199       0.87690106       0.74975475 </v>
    <v>       0.65211947       0.39443448       0.25041250 </v>
    <v>       0.64047754       0.39609613       0.74946384 </v>
    <v>       0.63916532       0.88627749       0.26347908 </v>
    <v>       0.63758806       0.87734608       0.75105366 </v>
    <v>       0.36889456       0.38290629       0.99191372 </v>
    <v>       0.37065924       0.38417821       0.50890394 </v>
    <v>       0.36578148       0.88312365       0.99234662 </v>
    <v>       0.36927568       0.88366546       0.50867984 </v>
    <v>       0.86765479       0.38478661       0.98714778 </v>
    <v>       0.86791100       0.38663804       0.51256473 </v>
    <v>       0.86259252       0.88403607       0.98953577 </v>
    <v>       0.86156949       0.88134806       0.49767124 </v>
    <v>       0.13310764       0.11478427       0.00752636 </v>
    <v>       0.13417122       0.11735572       0.50091087 </v>
    <v>       0.13293913       0.61506968       0.01256252 </v>
    <v>       0.12992796       0.61351581       0.48847043 </v>
    <v>       0.63455768       0.11757787       0.00660180 </v>
    <v>       0.63491657       0.11968264       0.49251627 </v>
    <v>       0.63524033       0.61993359       0.00636753 </v>
    <v>       0.63630250       0.62325737       0.48359887 </v>
    <v>       0.11534884       0.36589541       0.99499880 </v>
    <v>       0.11550246       0.36701342       0.50461696 </v>
    <v>       0.11496744       0.86510388       0.00174248 </v>
    <v>       0.11518162       0.86783820       0.49956490 </v>
    <v>       0.61782294       0.36706906       0.99947193 </v>
    <v>       0.61866423       0.36999531       0.50181628 </v>
    <v>       0.61647826       0.86598644       0.99861438 </v>
    <v>       0.62085739       0.86418536       0.48599639 </v>
    <v>       0.38469066       0.13220826       0.00125173 </v>
    <v>       0.38551268       0.13426287       0.50474265 </v>
    <v>       0.38314032       0.63480816       0.99915810 </v>
    <v>       0.38481044       0.63209054       0.50171784 </v>
    <v>       0.88405857       0.13389203       0.00238854 </v>
    <v>       0.88358676       0.13474915       0.49938843 </v>
    <v>       0.88357769       0.63771200       0.00094736 </v>
    <v>       0.87944872       0.63982385       0.48893623 </v>
    <v>       0.98473288       0.98618123       0.12642936 </v>
    <v>       0.99736336       0.99743524       0.62325052 </v>
    <v>       0.97613140       0.48391337       0.13128382 </v>
    <v>       0.01075680       0.52769255       0.63005664 </v>
    <v>       0.50407208       0.99140537       0.12562253 </v>
    <v>       0.51407678       0.99701262       0.62363912 </v>
    <v>       0.50249570       0.50031801       0.12683660 </v>
    <v>       0.51929592       0.52454763       0.62957988 </v>
    <v>       0.00186716       0.00559144       0.37583745 </v>
    <v>       0.00666236       0.00414472       0.87670513 </v>
    <v>       0.98582053       0.47995963       0.37383812 </v>
    <v>       0.01630290       0.53061698       0.86303741 </v>
    <v>       0.48911330       0.00433201       0.37549722 </v>
    <v>       0.50435164       0.00332100       0.87434689 </v>
    <v>       0.49604536       0.49265729       0.37674364 </v>
    <v>       0.51555242       0.52233300       0.86683424 </v>
    <v>       0.25438509       0.25185021       0.37843353 </v>
    <v>       0.24758822       0.24172964       0.87321430 </v>
    <v>       0.25493373       0.75624240       0.37474717 </v>
    <v>       0.23597708       0.73468413       0.87170616 </v>
    <v>       0.76735198       0.26529628       0.37178152 </v>
    <v>       0.74471641       0.24352741       0.87593294 </v>
    <v>       0.73622581       0.73437958       0.87115308 </v>
    <v>       0.25437487       0.25902124       0.12252363 </v>
    <v>       0.24930280       0.24832193       0.62624206 </v>
    <v>       0.25682366       0.75660252       0.12437297 </v>
    <v>       0.23500214       0.73407073       0.62973315 </v>
    <v>       0.76533085       0.26549971       0.12824707 </v>
    <v>       0.74577341       0.24508511       0.62387017 </v>
    <v>       0.75618705       0.76053084       0.12556947 </v>
    <v>       0.73157810       0.73787895       0.62776282 </v>
   </varray>
  </structure>
  <varray name="forces" >
   <v>      -0.00057085       0.00175457       0.00712659 </v>
   <v>      -0.00318952       0.00145549       0.00765977 </v>
   <v>      -0.00039541      -0.00421811       0.00953521 </v>
   <v>      -0.00347214      -0.00212942       0.01084653 </v>
   <v>      -0.00194723       0.00470157       0.00340696 </v>
   <v>      -0.00061159      -0.00387571       0.00403567 </v>
   <v>      -0.00354356       0.00258068      -0.00757525 </v>
   <v>       0.00747659       0.00460945       0.00105053 </v>
   <v>       0.00458881       0.00499949       0.00003647 </v>
   <v>      -0.00444228       0.00197055      -0.00831851 </v>
   <v>      -0.00840838      -0.00123012       0.00153441 </v>
   <v>      -0.00743232       0.00011364      -0.01208135 </v>
   <v>      -0.00333644      -0.00155516       0.00366554 </v>
   <v>       0.01111593      -0.00454686       0.00096424 </v>
   <v>       0.01247652       0.00180340       0.00491580 </v>
   <v>       0.00532539       0.00552087      -0.00368902 </v>
   <v>       0.00075937       0.01014624       0.00369539 </v>
   <v>       0.00278028       0.00044814       0.00804266 </v>
   <v>       0.00395040      -0.00142942       0.00108995 </v>
   <v>      -0.00433868      -0.00345149      -0.00226317 </v>
   <v>      -0.00172917       0.00454088       0.00278282 </v>
   <v>      -0.00059897      -0.00696180       0.00067725 </v>
   <v>      -0.00451281       0.00223215      -0.00837962 </v>
   <v>      -0.00464789      -0.00272969       0.00731290 </v>
   <v>      -0.00260770       0.00238164      -0.00303700 </v>
   <v>       0.01039932      -0.00831763      -0.00977065 </v>
   <v>       0.00134322      -0.00034818      -0.00024080 </v>
   <v>      -0.00325540       0.00291621      -0.00562009 </v>
   <v>       0.00029725      -0.00478014       0.00331354 </v>
   <v>      -0.00117207       0.00443963       0.00026162 </v>
   <v>       0.00257818       0.01103552       0.00112806 </v>
   <v>      -0.00161826       0.00197916      -0.00886480 </v>
   <v>      -0.01884999      -0.01481373       0.00180622 </v>
   <v>      -0.00030048      -0.00072506      -0.00764750 </v>
   <v>      -0.00598049      -0.00115795      -0.01155854 </v>
   <v>       0.00748449      -0.00955488      -0.00474233 </v>
   <v>       0.00140008      -0.01097245      -0.01236156 </v>
   <v>      -0.00640374      -0.00182315       0.00854535 </v>
   <v>      -0.00459358       0.00808806       0.00787282 </v>
   <v>       0.01308968      -0.00532027       0.00043134 </v>
   <v>       0.02754011      -0.00107005       0.00146626 </v>
   <v>      -0.01011198      -0.00029967      -0.00223602 </v>
   <v>       0.00221918      -0.01369688      -0.00133737 </v>
   <v>      -0.01239695       0.00024050       0.00250763 </v>
   <v>      -0.01409158       0.02819753      -0.03617161 </v>
   <v>       0.00898752      -0.00857557      -0.00240032 </v>
   <v>       0.00336076       0.01034139       0.00414340 </v>
   <v>       0.00226726      -0.01128340      -0.01275226 </v>
   <v>       0.01665667       0.00086293       0.00228635 </v>
   <v>       0.01083446       0.00515027       0.01564068 </v>
   <v>      -0.00750533      -0.00891538       0.00946617 </v>
   <v>      -0.00124798       0.00335877       0.01527354 </v>
   <v>       0.01012994       0.00451583       0.00077932 </v>
   <v>      -0.01813016      -0.00885441       0.01965767 </v>
   <v>      -0.01184427       0.01025284       0.00162670 </v>
   <v>       0.00900566       0.00876134       0.00947378 </v>
   <v>       0.00010750      -0.00797079       0.00221176 </v>
   <v>       0.00070066       0.00495652      -0.00549332 </v>
   <v>      -0.00320895      -0.00108083      -0.00786917 </v>
   <v>      -0.00178959       0.00402475      -0.00180903 </v>
   <v>       0.00454384      -0.00198041      -0.00167022 </v>
   <v>       0.00678635      -0.01209755       0.01272483 </v>
   <v>       0.00237634      -0.00106549       0.00543544 </v>
   <v>       0.00710293      -0.00314094       0.00600889 </v>
   <v>       0.00110754      -0.00199593      -0.00688556 </v>
   <v>       0.00169292      -0.00264604      -0.01285429 </v>
   <v>      -0.00264768      -0.00876815      -0.00304996 </v>
   <v>      -0.00836203      -0.00888543      -0.00431908 </v>
   <v>       0.00860834       0.00322619      -0.00716921 </v>
   <v>       0.00735748      -0.00689688      -0.00718269 </v>
   <v>      -0.00452936       0.01466592       0.00841486 </v>
   <v>      -0.00971550      -0.01586583       0.00967712 </v>
   <v>      -0.00415975       0.00037819      -0.00882684 </v>
   <v>      -0.00333674      -0.00669214      -0.00205255 </v>
   <v>      -0.00492436       0.01292282      -0.00200536 </v>
   <v>      -0.00716587       0.00097709      -0.00210383 </v>
   <v>      -0.00154951      -0.00674671       0.00767693 </v>
   <v>       0.01004686       0.00411747      -0.00412342 </v>
   <v>      -0.00185139       0.00675733      -0.00280670 </v>
   <v>       0.00455895       0.00196958       0.00331291 </v>
   <v>      -0.01138430      -0.00827387      -0.00199954 </v>
   <v>      -0.00307566       0.00999679      -0.00415123 </v>
   <v>       0.00037162       0.00345602       0.00243120 </v>
   <v>       0.00703687       0.00021628      -0.00281874 </v>
   <v>      -0.00228698      -0.00143962      -0.00339084 </v>
   <v>      -0.01083263       0.00443490       0.00653185 </v>
   <v>      -0.00157453      -0.00096217       0.00544649 </v>
   <v>      -0.00423663       0.00328246      -0.00130545 </v>
   <v>       0.00736527      -0.00490383       0.00250467 </v>
   <v>      -0.00072409       0.01108054      -0.00231902 </v>
   <v>      -0.00092996       0.00015550      -0.00348971 </v>
   <v>       0.00376752      -0.00364753       0.00619602 </v>
   <v>       0.00080819      -0.00523230       0.00499555 </v>
   <v>       0.00020406      -0.00802996       0.00252358 </v>
   <v>      -0.01043366       0.00218937      -0.01021660 </v>
   <v>      -0.00174426       0.00510439       0.00060566 </v>
   <v>      -0.00179878      -0.00398136      -0.00654021 </v>
   <v>       0.01157259       0.00277354       0.01042045 </v>
   <v>       0.00623745       0.00014882       0.00118514 </v>
   <v>       0.00410842       0.00584098      -0.00600484 </v>
   <v>      -0.01591224      -0.01276064      -0.00937208 </v>
   <v>      -0.00065639      -0.00119989      -0.00465339 </v>
   <v>      -0.00154508      -0.00258189       0.00266780 </v>
   <v>      -0.00387217      -0.00507736      -0.00822521 </v>
   <v>       0.00202240      -0.00466080       0.00502859 </v>
   <v>      -0.00071216       0.00105787       0.00163984 </v>
   <v>       0.00347918       0.00687735       0.00134348 </v>
   <v>      -0.00024211      -0.00173882      -0.00304328 </v>
   <v>       0.00505475       0.00656039       0.00838628 </v>
   <v>       0.00686131       0.00112282      -0.00237297 </v>
   <v>      -0.00388306      -0.00060284      -0.00115088 </v>
   <v>      -0.00093211       0.00204646       0.00055546 </v>
   <v>      -0.00314571      -0.00176271      -0.00076295 </v>
   <v>       0.00069786       0.00252705      -0.00084081 </v>
   <v>       0.00026777      -0.00074132       0.00016945 </v>
   <v>      -0.00356002       0.00968815      -0.00162634 </v>
   <v>       0.00387161      -0.00919988      -0.00127545 </v>
   <v>      -0.00398433       0.00642661       0.00570581 </v>
   <v>      -0.00058654       0.00104729       0.00353529 </v>
   <v>      -0.00848692       0.00519155       0.00518937 </v>
   <v>      -0.00533324       0.00272004      -0.00390462 </v>
   <v>       0.00300191      -0.00577110       0.00293592 </v>
   <v>       0.00268035       0.01106762      -0.00229035 </v>
   <v>       0.01261451      -0.00390217      -0.00105132 </v>
   <v>      -0.00308841       0.00528010       0.00788422 </v>
   <v>       0.00247248       0.00394304      -0.00073726 </v>
   <v>      -0.00455609      -0.00268841      -0.00461734 </v>
   <v>       0.00271068       0.00369137      -0.00238838 </v>
   <v>       0.01128445      -0.01070558       0.00632934 </v>
   <v>       0.01037159      -0.00757749       0.00370062 </v>
   <v>      -0.00084712       0.00004569      -0.00335909 </v>
   <v>      -0.00405699      -0.01033644       0.00764168 </v>
   <v>      -0.00829953      -0.00229407       0.00397777 </v>
   <v>       0.00612763       0.00144204       0.00022072 </v>
   <v>       0.00546175       0.00386838       0.00649750 </v>
   <v>      -0.00412908       0.00097663      -0.00161384 </v>
   <v>       0.00054821       0.00510552      -0.00970630 </v>
   <v>      -0.00349562       0.00268079       0.00864045 </v>
   <v>      -0.00192279       0.00542870      -0.00439066 </v>
   <v>       0.00530032       0.00252674      -0.00104231 </v>
   <v>      -0.00601834       0.01067980      -0.01272872 </v>
   <v>      -0.00038339      -0.00418733      -0.00459093 </v>
   <v>       0.00105279      -0.01930430      -0.00591365 </v>
   <v>      -0.00622334       0.00451164      -0.00338128 </v>
   <v>       0.00586324       0.00377806      -0.00498551 </v>
   <v>      -0.00848233      -0.00100135       0.00133187 </v>
   <v>       0.00228237       0.00716071      -0.00430862 </v>
   <v>       0.00070979      -0.00367068      -0.00253654 </v>
   <v>      -0.00130258       0.00145978      -0.00334952 </v>
   <v>       0.00308170       0.00714082       0.00390222 </v>
   <v>       0.00555632      -0.00235042       0.00818016 </v>
   <v>       0.00247890       0.00256654      -0.00800491 </v>
   <v>      -0.00520334      -0.00189564       0.00566040 </v>
   <v>       0.00108565      -0.00174150       0.00308695 </v>
   <v>      -0.00402566       0.00046867       0.00179070 </v>
   <v>       0.01096784       0.00153060       0.01336529 </v>
  </varray>
  <varray name="stress" >
   <v>      -0.06557022      -0.02756966       0.00728394 </v>
   <v>      -0.02756985      -0.02639777      -0.00505457 </v>
   <v>       0.00728366      -0.00505471      -0.06435546 </v>
  </varray>
  <energy>
   <i name="e_fr_energy">  -1119.09036622 </i>
   <i name="e_wo_entrp">  -1119.09036622 </i>
   <i name="e_0_energy">     -0.00000000 </i>
  </energy>
  <time name="totalsc"> 1931.08 1933.26</time>
 </calculation>
 <calculation>
  <scstep>
   <time name="dav">  572.96  573.03</time>
   <time name="total">  580.15  580.31</time>
   <energy>
    <i name="alphaZ">   5613.41671354 </i>
    <i name="ewald"> -61034.16585152 </i>
    <i name="hartreedc"> -16470.42404603 </i>
    <i name="XCdc">   2962.62209520 </i>
    <i name="pawpsdc"> 112684.39355768 </i>
    <i name="pawaedc">-111583.58544216 </i>
    <i name="eentropy">     -0.00000000 </i>
    <i name="bandstr">  -7074.79523237 </i>
    <i name="atom">  73783.44779670 </i>
    <i name="e_fr_energy">  -1119.09040897 </i>
    <i name="e_wo_entrp">  -1119.09040897 </i>
    <i name="e_0_energy">  -1119.09040897 </i>
   </energy>
  </scstep>
  <scstep>
   <time name="diag">   65.25   65.25</time>
   <time name="diis">  105.05  105.06</time>
   <time name="orth">   33.40   33.40</time>
   <time name="total">  210.93  210.96</time>
   <energy>
    <i name="e_fr_energy">  -1119.09076372 </i>
    <i name="e_wo_entrp">  -1119.09076372 </i>
    <i name="e_0_energy">  -1119.09076372 </i>
   </energy>
  </scstep>
  <scstep>
   <time name="diag">   65.27   65.28</time>
   <time name="diis">   74.88   74.89</time>
   <time name="orth">   33.52   33.52</time>
   <time name="total">  180.88  180.93</time>
   <energy>
    <i name="e_fr_energy">  -1119.09073965 </i>
    <i name="e_wo_entrp">  -1119.09073965 </i>
    <i name="e_0_energy">  -1119.09073965 </i>
   </energy>
  </scstep>
  <scstep>
   <time name="diag">   65.36   65.36</time>
   <time name="diis">   64.83   64.82</time>
   <time name="orth">   33.50   33.50</time>
   <time name="total">  170.87  170.93</time>
   <energy>
    <i name="e_fr_energy">  -1119.09070645 </i>
    <i name="e_wo_entrp">  -1119.09070645 </i>
    <i name="e_0_energy">  -1119.09070645 </i>
   </energy>
  </scstep>
  <scstep>
   <time name="diag">   65.27   65.30</time>
   <time name="diis">   63.46   63.46</time>
   <time name="orth">   33.51   33.51</time>
   <time name="total">  169.43  169.48</time>
   <energy>
    <i name="e_fr_energy">  -1119.09070189 </i>
    <i name="e_wo_entrp">  -1119.09070189 </i>
    <i name="e_0_energy">  -1119.09070189 </i>
   </energy>
  </scstep>
  <scstep>
   <time name="diag">   65.30   65.30</time>
   <time name="diis">   61.73   61.73</time>
   <time name="orth">   33.47   33.47</time>
   <time name="total">  167.71  167.77</time>
   <energy>
    <i name="e_fr_energy">  -1119.09070316 </i>
    <i name="e_wo_entrp">  -1119.09070316 </i>
    <i name="e_0_energy">  -1119.09070316 </i>
   </energy>
  </scstep>
  <scstep>
   <time name="diag">   65.11   65.13</time>
   <time name="diis">   58.42   58.42</time>
   <time name="orth">   33.33   33.33</time>
   <time name="total">  164.06  164.20</time>
   <energy>
    <i name="e_fr_energy">  -1119.09070414 </i>
    <i name="e_wo_entrp">  -1119.09070414 </i>
    <i name="e_0_energy">  -1119.09070414 </i>
   </energy>
  </scstep>
  <scstep>
   <time name="diag">   65.12   65.13</time>
   <time name="diis">   57.08   57.10</time>
   <time name="orth">   33.35   33.35</time>
   <time name="total">  156.62  156.74</time>
   <energy>
    <i name="alphaZ">   5613.41671354 </i>
    <i name="ewald"> -61034.16585152 </i>
    <i name="hartreedc"> -16469.51590020 </i>
    <i name="XCdc">   2962.56369046 </i>
    <i name="pawpsdc"> 112691.78708280 </i>
    <i name="pawaedc">-111590.99862434 </i>
    <i name="eentropy">     -0.00000000 </i>
    <i name="bandstr">  -7075.62561256 </i>
    <i name="atom">  73783.44779670 </i>
    <i name="e_fr_energy">  -1119.09070511 </i>
    <i name="e_wo_entrp">  -1119.09070511 </i>
    <i name="e_0_energy">  -1119.09070511 </i>
   </energy>
  </scstep>
  <structure>
   <crystal>
    <varray name="basis" >
     <v>      11.24690669       0.01329901       0.00880710 </v>
     <v>       0.01328819      11.24308552       0.00564895 </v>
     <v>       0.01251546       0.00803694      15.89902059 </v>
    </varray>
    <i name="volume">   2010.42554183 </i>
    <varray name="rec_basis" >
     <v>       0.08891352      -0.00010505      -0.00006994 </v>
     <v>      -0.00010514       0.08894370      -0.00004488 </v>
     <v>      -0.00004922      -0.00003154       0.06289701 </v>
    </varray>
   </crystal>
   <varray name="positions" >
    <v>       0.00840303       0.25104429       0.12250959 </v>
    <v>       0.99746052       0.24133393       0.62227841 </v>
    <v>       0.00768337       0.74811460       0.12591567 </v>
    <v>       0.00889777       0.75867459       0.61601417 </v>
    <v>       0.49200507       0.25341931       0.12191252 </v>
    <v>       0.50201224       0.24397959       0.62173828 </v>
    <v>       0.49399536       0.74513853       0.12422316 </v>
    <v>       0.48967999       0.75602047       0.61572864 </v>
    <v>       0.01137429       0.24560683       0.37522521 </v>
    <v>       0.99742741       0.24264479       0.87845361 </v>
    <v>       0.01641677       0.75184074       0.37204101 </v>
    <v>       0.00386727       0.75655052       0.88534424 </v>
    <v>       0.49087594       0.24995893       0.37622022 </v>
    <v>       0.50223999       0.24709571       0.88073777 </v>
    <v>       0.48642436       0.74868199       0.37337770 </v>
    <v>       0.49697996       0.75387661       0.88529764 </v>
    <v>       0.24993571       0.99874205       0.12666609 </v>
    <v>       0.24420640       0.00120833       0.62210298 </v>
    <v>       0.25153756       0.49804626       0.12846604 </v>
    <v>       0.24516865       0.50110464       0.61750184 </v>
    <v>       0.75107318       0.00146071       0.12052949 </v>
    <v>       0.75182475       0.01184151       0.62521118 </v>
    <v>       0.74803462       0.49908205       0.11914403 </v>
    <v>       0.74648268       0.49001711       0.62395458 </v>
    <v>       0.24889029       0.99632553       0.37347055 </v>
    <v>       0.24606457       0.00354538       0.87879368 </v>
    <v>       0.25087613       0.49956447       0.36955929 </v>
    <v>       0.24528663       0.49968414       0.88259779 </v>
    <v>       0.75506319       0.00766462       0.37560211 </v>
    <v>       0.74941241       0.00878930       0.87691012 </v>
    <v>       0.74824617       0.49592112       0.37751294 </v>
    <v>       0.74631489       0.49608783       0.87870347 </v>
    <v>       0.99938903       0.99985780       0.00000771 </v>
    <v>       0.00082143       0.99932225       0.49980097 </v>
    <v>       0.99997329       0.50079703       0.49482128 </v>
    <v>       0.50007966       0.99988036       0.00110713 </v>
    <v>       0.49897792       0.99946312       0.49798761 </v>
    <v>       0.49905766       0.50271841       0.49868929 </v>
    <v>       0.24973113       0.25416018       0.00081323 </v>
    <v>       0.25038215       0.25027506       0.50052540 </v>
    <v>       0.24909286       0.74540117       0.00388028 </v>
    <v>       0.75157644       0.25514440       0.99866117 </v>
    <v>       0.75152575       0.25201294       0.50076490 </v>
    <v>       0.74996611       0.74734375       0.99670795 </v>
    <v>       0.74759112       0.74931539       0.51102490 </v>
    <v>       0.24344279       0.24550869       0.74943790 </v>
    <v>       0.26219191       0.75796786       0.75037051 </v>
    <v>       0.73898988       0.24363037       0.24909827 </v>
    <v>       0.75064113       0.75123842       0.24186839 </v>
    <v>       0.76427516       0.75759619       0.75294664 </v>
    <v>       0.00284883      -0.00000092       0.25002327 </v>
    <v>       0.98921396       0.48692086       0.74903187 </v>
    <v>       0.49353510       0.99483573       0.25038912 </v>
    <v>       0.50318287       0.00467225       0.74992924 </v>
    <v>       0.49963878       0.49958432       0.24889575 </v>
    <v>       0.48998107       0.48486943       0.74995834 </v>
    <v>       0.99832843       0.50054403       0.00445817 </v>
    <v>       0.50099466       0.50207169       0.99972200 </v>
    <v>       0.24886880       0.74842950       0.49714061 </v>
    <v>       0.25020146       0.24978814       0.24892487 </v>
    <v>       0.25241570       0.75026492       0.25024144 </v>
    <v>       0.74741255       0.24559388       0.75087525 </v>
    <v>       0.99972606       0.00307614       0.75073245 </v>
    <v>       0.00880228       0.50985820       0.25008396 </v>
    <v>       0.11682295       0.12905357       0.24527404 </v>
    <v>       0.10928189       0.14090363       0.74712099 </v>
    <v>       0.11767875       0.63521398       0.24848699 </v>
    <v>       0.61314531       0.13898184       0.25018035 </v>
    <v>       0.60632487       0.13834001       0.74932192 </v>
    <v>       0.61611971       0.64299511       0.25972835 </v>
    <v>       0.39254125       0.36280618       0.25039623 </v>
    <v>       0.39394749       0.35125883       0.75036218 </v>
    <v>       0.38868045       0.86333216       0.24904639 </v>
    <v>       0.39420231       0.85592114       0.74929218 </v>
    <v>       0.89317085       0.35442316       0.75036497 </v>
    <v>       0.87772320       0.86470428       0.26872530 </v>
    <v>       0.89495171       0.85241127       0.75148058 </v>
    <v>       0.36595649       0.11189150       0.24659061 </v>
    <v>       0.35768157       0.10230152       0.74641817 </v>
    <v>       0.36800880       0.61174633       0.25033016 </v>
    <v>       0.35427427       0.60387651       0.74864751 </v>
    <v>       0.87029236       0.12857544       0.24995437 </v>
    <v>       0.85654050       0.10459284       0.75036520 </v>
    <v>       0.85903524       0.61806098       0.26204061 </v>
    <v>       0.84410354       0.60249481       0.74727280 </v>
    <v>       0.12458405       0.37742806       0.25164240 </v>
    <v>       0.14261564       0.39624626       0.74819058 </v>
    <v>       0.13077279       0.88443972       0.24943653 </v>
    <v>       0.13677360       0.87687997       0.74976234 </v>
    <v>       0.65211631       0.39448203       0.25040545 </v>
    <v>       0.64047356       0.39609681       0.74945325 </v>
    <v>       0.63918148       0.88626180       0.26349787 </v>
    <v>       0.63759153       0.87732362       0.75106882 </v>
    <v>       0.36889547       0.38287183       0.99192139 </v>
    <v>       0.37061451       0.38418768       0.50887297 </v>
    <v>       0.36577397       0.88314556       0.99234845 </v>
    <v>       0.36926801       0.88364840       0.50866000 </v>
    <v>       0.86770438       0.38479842       0.98717936 </v>
    <v>       0.86793775       0.38663865       0.51256831 </v>
    <v>       0.86261013       0.88406113       0.98951753 </v>
    <v>       0.86150134       0.88129341       0.49764286 </v>
    <v>       0.13310484       0.11477914       0.00751224 </v>
    <v>       0.13416460       0.11734464       0.50091898 </v>
    <v>       0.13292258       0.61504793       0.01253758 </v>
    <v>       0.12993664       0.61349579       0.48848569 </v>
    <v>       0.63455461       0.11758241       0.00660677 </v>
    <v>       0.63493145       0.11971212       0.49252033 </v>
    <v>       0.63523931       0.61992613       0.00635830 </v>
    <v>       0.63632412       0.62328548       0.48362429 </v>
    <v>       0.11537827       0.36590019       0.99499158 </v>
    <v>       0.11548581       0.36701086       0.50461348 </v>
    <v>       0.11496343       0.86511266       0.00174417 </v>
    <v>       0.11516814       0.86783066       0.49956259 </v>
    <v>       0.61782592       0.36707990       0.99946937 </v>
    <v>       0.61866539       0.36999212       0.50181679 </v>
    <v>       0.61646295       0.86602803       0.99860944 </v>
    <v>       0.62087404       0.86414586       0.48599253 </v>
    <v>       0.38467352       0.13223584       0.00126904 </v>
    <v>       0.38551015       0.13426736       0.50475338 </v>
    <v>       0.38310387       0.63483047       0.99917386 </v>
    <v>       0.38478756       0.63210225       0.50170600 </v>
    <v>       0.88407147       0.13386725       0.00239745 </v>
    <v>       0.88359820       0.13479663       0.49938146 </v>
    <v>       0.88363182       0.63769520       0.00094415 </v>
    <v>       0.87943542       0.63984651       0.48896015 </v>
    <v>       0.98474347       0.98619813       0.12642711 </v>
    <v>       0.99734384       0.99742373       0.62323653 </v>
    <v>       0.97614302       0.48392920       0.13127656 </v>
    <v>       0.01080524       0.52764654       0.63007583 </v>
    <v>       0.50411659       0.99137279       0.12563374 </v>
    <v>       0.51407316       0.99701282       0.62362893 </v>
    <v>       0.50247832       0.50027366       0.12685981 </v>
    <v>       0.51926032       0.52453782       0.62959197 </v>
    <v>       0.00189344       0.00559760       0.37583811 </v>
    <v>       0.00668575       0.00416127       0.87672483 </v>
    <v>       0.98580282       0.47996384       0.37383323 </v>
    <v>       0.01630526       0.53063890       0.86300795 </v>
    <v>       0.48909826       0.00434351       0.37552344 </v>
    <v>       0.50434338       0.00334431       0.87433357 </v>
    <v>       0.49606809       0.49266811       0.37674046 </v>
    <v>       0.51552659       0.52237889       0.86679561 </v>
    <v>       0.25438348       0.25183225       0.37841961 </v>
    <v>       0.24759286       0.24164681       0.87319638 </v>
    <v>       0.25490702       0.75626180       0.37473692 </v>
    <v>       0.23600223       0.73470032       0.87169101 </v>
    <v>       0.76731559       0.26529203       0.37178559 </v>
    <v>       0.74472618       0.24355814       0.87591985 </v>
    <v>       0.73622888       0.73436383       0.87114538 </v>
    <v>       0.25436929       0.25902752       0.12251347 </v>
    <v>       0.24931597       0.24835255       0.62625388 </v>
    <v>       0.25684747       0.75659239       0.12439778 </v>
    <v>       0.23501279       0.73408175       0.62970886 </v>
    <v>       0.76530852       0.26549159       0.12826426 </v>
    <v>       0.74577807       0.24507763       0.62387953 </v>
    <v>       0.75616977       0.76053287       0.12557491 </v>
    <v>       0.73162509       0.73788543       0.62780334 </v>
   </varray>
  </structure>
  <varray name="forces" >
   <v>      -0.00009533      -0.00086425       0.00405975 </v>
   <v>      -0.00161906       0.00697466       0.00588900 </v>
   <v>       0.00445150      -0.00500752       0.00079332 </v>
   <v>      -0.00340805      -0.00826528       0.00600825 </v>
   <v>      -0.00381977       0.00489672       0.00510402 </v>
   <v>       0.00226839      -0.00417426       0.00666319 </v>
   <v>      -0.00253129       0.00352171       0.00235243 </v>
   <v>       0.00814252       0.00107130       0.00097392 </v>
   <v>       0.00299101       0.00762051       0.00312561 </v>
   <v>       0.00198354      -0.00051112      -0.00423320 </v>
   <v>      -0.00153647      -0.00548875       0.00385525 </v>
   <v>      -0.00165473      -0.00138399      -0.00301359 </v>
   <v>       0.00117796       0.00295189       0.00094048 </v>
   <v>       0.00429615      -0.00365161      -0.00122592 </v>
   <v>       0.00670265      -0.00393374       0.00105797 </v>
   <v>       0.00496113       0.00331149      -0.00894583 </v>
   <v>      -0.00224595       0.01152933       0.00014498 </v>
   <v>       0.00123072      -0.00008157       0.00351605 </v>
   <v>       0.00104109      -0.00110431       0.00014602 </v>
   <v>      -0.00871796      -0.00365653       0.00056630 </v>
   <v>      -0.00032560       0.00453113       0.00376764 </v>
   <v>      -0.00300799      -0.00557000       0.00546629 </v>
   <v>      -0.00130659       0.00237723       0.00014163 </v>
   <v>      -0.00039147       0.00334859       0.00011862 </v>
   <v>      -0.00288855       0.00182280      -0.00345383 </v>
   <v>      -0.00022038      -0.00194789      -0.00102434 </v>
   <v>       0.00115170      -0.00109483       0.00368589 </v>
   <v>      -0.00562137      -0.00050887      -0.00863853 </v>
   <v>      -0.00058313       0.00033413       0.00232084 </v>
   <v>       0.00173806       0.00491291      -0.00273654 </v>
   <v>      -0.00086274       0.00515441       0.00207229 </v>
   <v>       0.00403154      -0.00027989      -0.00862544 </v>
   <v>       0.03271241       0.01587295       0.00029923 </v>
   <v>       0.00558785       0.00048876       0.00677243 </v>
   <v>      -0.00605283      -0.00108247       0.01394024 </v>
   <v>      -0.01012493       0.01545842       0.00906837 </v>
   <v>      -0.00838735       0.00715518       0.00675355 </v>
   <v>       0.00098658      -0.00424582      -0.00498880 </v>
   <v>      -0.01120012      -0.01023794      -0.00788517 </v>
   <v>      -0.01308443       0.00305725      -0.00027611 </v>
   <v>      -0.02519724       0.01229205       0.00630860 </v>
   <v>       0.01382827      -0.00725611       0.00073220 </v>
   <v>      -0.01019792       0.01352082       0.00021984 </v>
   <v>       0.01804176      -0.00448858       0.00056675 </v>
   <v>       0.01862472      -0.02614571       0.04137855 </v>
   <v>       0.00149867       0.00717995       0.00532406 </v>
   <v>      -0.01909831      -0.02134975      -0.01008539 </v>
   <v>      -0.00404064       0.01658069       0.02406177 </v>
   <v>      -0.00633765      -0.00834824      -0.00142268 </v>
   <v>      -0.00801973      -0.01462173      -0.01843183 </v>
   <v>       0.01658464       0.00818728      -0.02043952 </v>
   <v>       0.00633240      -0.00234281      -0.02770440 </v>
   <v>       0.00419840      -0.00229526      -0.00331471 </v>
   <v>       0.00585724       0.00440526      -0.01408944 </v>
   <v>       0.00555433       0.00434607       0.01161033 </v>
   <v>      -0.01842991      -0.02027315      -0.01020418 </v>
   <v>       0.00533546      -0.00069644       0.00441461 </v>
   <v>      -0.00495540      -0.00421129       0.00088050 </v>
   <v>      -0.00561610      -0.00577739       0.00145412 </v>
   <v>      -0.00166648       0.00272476       0.00062498 </v>
   <v>       0.00264010      -0.00093425       0.00178805 </v>
   <v>       0.00380522      -0.00604324      -0.00193577 </v>
   <v>       0.00340861       0.00138815       0.00422972 </v>
   <v>      -0.00058770      -0.00748711      -0.00178830 </v>
   <v>      -0.00115032      -0.00404989      -0.00470613 </v>
   <v>      -0.00297048      -0.01047622      -0.01292995 </v>
   <v>       0.00477206      -0.00087454      -0.00189405 </v>
   <v>      -0.00223897      -0.00589068      -0.00374288 </v>
[...]
       <r>   -16.2866     0.0000    32.0000 </r>
       <r>   -16.1343     0.0000    32.0000 </r>
       <r>   -15.9820     0.0000    32.0000 </r>
       <r>   -15.8296     0.0000    32.0000 </r>
       <r>   -15.6773     0.0000    32.0000 </r>
       <r>   -15.5250     0.0000    32.0000 </r>
       <r>   -15.3727     0.0000    32.0000 </r>
       <r>   -15.2204     1.3148    32.2003 </r>
       <r>   -15.0681    17.6300    34.8855 </r>
       <r>   -14.9158    45.7519    41.8541 </r>
       <r>   -14.7635    46.3062    48.9071 </r>
       <r>   -14.6112    39.3660    54.9030 </r>
       <r>   -14.4588    35.3765    60.2913 </r>
       <r>   -14.3065    36.9873    65.9249 </r>
       <r>   -14.1542    64.1274    75.6922 </r>
       <r>   -14.0019   105.9663    91.8322 </r>
       <r>   -13.8496   107.3767   108.1869 </r>
       <r>   -13.6973    70.1603   118.8732 </r>
       <r>   -13.5450    23.4658   122.4473 </r>
       <r>   -13.3927     8.7813   123.7848 </r>
       <r>   -13.2403     1.4127   124.0000 </r>
       <r>   -13.0880     0.0000   124.0000 </r>
       <r>   -12.9357     0.0000   124.0000 </r>
       <r>   -12.7834     0.0615   124.0094 </r>
       <r>   -12.6311    28.3321   128.3247 </r>
       <r>   -12.4788   119.0936   146.4641 </r>
       <r>   -12.3265   157.3641   170.4325 </r>
       <r>   -12.1742   120.2046   188.7411 </r>
       <r>   -12.0218   110.8370   205.6229 </r>
       <r>   -11.8695    77.8412   217.4791 </r>
       <r>   -11.7172    16.5476   219.9995 </r>
       <r>   -11.5649     0.0034   220.0000 </r>
       <r>   -11.4126     0.0000   220.0000 </r>
       <r>   -11.2603     0.0000   220.0000 </r>
       <r>   -11.1080     0.0000   220.0000 </r>
       <r>   -10.9557     0.0000   220.0000 </r>
       <r>   -10.8034     0.0000   220.0000 </r>
       <r>   -10.6510     0.0000   220.0000 </r>
       <r>   -10.4987     0.0000   220.0000 </r>
       <r>   -10.3464     0.0000   220.0000 </r>
       <r>   -10.1941     0.0000   220.0000 </r>
       <r>   -10.0418     0.0000   220.0000 </r>
       <r>    -9.8895     0.0000   220.0000 </r>
       <r>    -9.7372     0.0000   220.0000 </r>
       <r>    -9.5849     0.0000   220.0000 </r>
       <r>    -9.4325     0.0000   220.0000 </r>
       <r>    -9.2802     0.0000   220.0000 </r>
       <r>    -9.1279     0.0000   220.0000 </r>
       <r>    -8.9756     0.0000   220.0000 </r>
       <r>    -8.8233     0.0000   220.0000 </r>
       <r>    -8.6710     0.0000   220.0000 </r>
       <r>    -8.5187     0.0000   220.0000 </r>
       <r>    -8.3664     0.0000   220.0000 </r>
       <r>    -8.2140     0.0000   220.0000 </r>
       <r>    -8.0617     0.0000   220.0000 </r>
       <r>    -7.9094     0.0000   220.0000 </r>
       <r>    -7.7571     0.0000   220.0000 </r>
       <r>    -7.6048     0.0000   220.0000 </r>
       <r>    -7.4525     0.0000   220.0000 </r>
       <r>    -7.3002     0.0000   220.0000 </r>
       <r>    -7.1479     0.0000   220.0000 </r>
       <r>    -6.9956     0.0000   220.0000 </r>
       <r>    -6.8432     0.0000   220.0000 </r>
       <r>    -6.6909     0.0000   220.0000 </r>
       <r>    -6.5386     0.0000   220.0000 </r>
       <r>    -6.3863     0.0000   220.0000 </r>
       <r>    -6.2340     0.0000   220.0000 </r>
       <r>    -6.0817     0.0000   220.0000 </r>
       <r>    -5.9294     0.0000   220.0000 </r>
       <r>    -5.7771     0.0000   220.0000 </r>
       <r>    -5.6247     0.0000   220.0000 </r>
       <r>    -5.4724     0.0000   220.0000 </r>
       <r>    -5.3201     0.0000   220.0000 </r>
       <r>    -5.1678     0.0000   220.0000 </r>
       <r>    -5.0155     0.0000   220.0000 </r>
       <r>    -4.8632     0.0000   220.0000 </r>
       <r>    -4.7109     0.0000   220.0000 </r>
       <r>    -4.5586     0.0000   220.0000 </r>
       <r>    -4.4062     0.0000   220.0000 </r>
       <r>    -4.2539     0.0000   220.0000 </r>
       <r>    -4.1016     0.0000   220.0000 </r>
       <r>    -3.9493     0.0000   220.0000 </r>
       <r>    -3.7970     0.0000   220.0000 </r>
       <r>    -3.6447     0.0000   220.0000 </r>
       <r>    -3.4924     0.0000   220.0000 </r>
       <r>    -3.3401     0.0000   220.0000 </r>
       <r>    -3.1878     0.0000   220.0000 </r>
       <r>    -3.0354     0.0000   220.0000 </r>
       <r>    -2.8831     0.0000   220.0000 </r>
       <r>    -2.7308     0.0000   220.0000 </r>
       <r>    -2.5785     0.0000   220.0000 </r>
       <r>    -2.4262     1.3829   220.2106 </r>
       <r>    -2.2739    12.6095   222.1312 </r>
       <r>    -2.1216    23.5798   225.7227 </r>
       <r>    -1.9693    22.2714   229.1149 </r>
       <r>    -1.8169    28.8587   233.5104 </r>
       <r>    -1.6646    51.1337   241.2987 </r>
       <r>    -1.5123    55.5440   249.7587 </r>
       <r>    -1.3600    60.7444   259.0108 </r>
       <r>    -1.2077    67.9937   269.3671 </r>
       <r>    -1.0554    69.8036   279.9990 </r>
       <r>    -0.9031    75.2004   291.4529 </r>
       <r>    -0.7508    87.8788   304.8379 </r>
       <r>    -0.5984    98.3369   319.8158 </r>
       <r>    -0.4461   106.2251   335.9952 </r>
       <r>    -0.2938    86.6496   349.1929 </r>
       <r>    -0.1415    54.8034   357.5402 </r>
       <r>     0.0108    48.4761   364.9237 </r>
       <r>     0.1631    49.9418   372.5304 </r>
       <r>     0.3154    50.6912   380.2513 </r>
       <r>     0.4677    48.0235   387.5658 </r>
       <r>     0.6200    51.4283   395.3990 </r>
       <r>     0.7724    53.0276   403.4757 </r>
       <r>     0.9247    49.9968   411.0908 </r>
       <r>     1.0770    64.0346   420.8441 </r>
       <r>     1.2293    76.2946   432.4647 </r>
       <r>     1.3816    82.9698   445.1019 </r>
       <r>     1.5339    84.4059   457.9580 </r>
       <r>     1.6862    78.0247   469.8421 </r>
       <r>     1.8385    63.0673   479.4480 </r>
       <r>     1.9909    44.9463   486.2938 </r>
       <r>     2.1432    35.1504   491.6477 </r>
       <r>     2.2955    23.8704   495.2834 </r>
       <r>     2.4478     4.6977   495.9989 </r>
       <r>     2.6001     0.0069   496.0000 </r>
       <r>     2.7524     0.0000   496.0000 </r>
       <r>     2.9047     0.0000   496.0000 </r>
       <r>     3.0570     0.0000   496.0000 </r>
       <r>     3.2094     0.0000   496.0000 </r>
       <r>     3.3617     0.0000   496.0000 </r>
       <r>     3.5140     0.0000   496.0000 </r>
       <r>     3.6663     0.0000   496.0000 </r>
       <r>     3.8186     0.0000   496.0000 </r>
       <r>     3.9709     0.0000   496.0000 </r>
       <r>     4.1232     0.0000   496.0000 </r>
       <r>     4.2755     0.0000   496.0000 </r>
       <r>     4.4278     0.0090   496.0014 </r>
       <r>     4.5802    10.7022   497.6314 </r>
       <r>     4.7325    44.7766   504.4515 </r>
       <r>     4.8848    35.5489   509.8660 </r>
       <r>     5.0371    32.7986   514.8616 </r>
       <r>     5.1894    53.3412   522.9861 </r>
       <r>     5.3417    65.5608   532.9718 </r>
       <r>     5.4940    75.9785   544.5442 </r>
       <r>     5.6463    59.2838   553.5739 </r>
       <r>     5.7987    72.3495   564.5936 </r>
       <r>     5.9510    81.5117   577.0088 </r>
       <r>     6.1033    90.1685   590.7425 </r>
       <r>     6.2556    73.9097   601.9999 </r>
       <r>     6.4079    59.0289   610.9907 </r>
       <r>     6.5602    27.4156   615.1664 </r>
       <r>     6.7125    12.1224   617.0128 </r>
       <r>     6.8648    23.0329   620.5210 </r>
       <r>     7.0172    19.9235   623.5556 </r>
       <r>     7.1695    15.2813   625.8831 </r>
       <r>     7.3218    13.9382   628.0061 </r>
       <r>     7.4741    17.3384   630.6469 </r>
       <r>     7.6264    17.6437   633.3342 </r>
       <r>     7.7787    17.0861   635.9367 </r>
       <r>     7.9310    21.8469   639.2642 </r>
       <r>     8.0833    20.3378   642.3619 </r>
       <r>     8.2356    27.7706   646.5917 </r>
       <r>     8.3880    24.2608   650.2869 </r>
       <r>     8.5403    27.1991   654.4296 </r>
       <r>     8.6926    19.3607   657.3785 </r>
       <r>     8.8449    26.1789   661.3659 </r>
       <r>     8.9972    36.1035   666.8649 </r>
       <r>     9.1495    44.1260   673.5858 </r>
       <r>     9.3018    35.9530   679.0619 </r>
       <r>     9.4541    41.9751   685.4552 </r>
       <r>     9.6065    45.0791   692.3213 </r>
       <r>     9.7588    50.5927   700.0271 </r>
       <r>     9.9111    62.6487   709.5693 </r>
       <r>    10.0634    68.8479   720.0556 </r>
       <r>    10.2157    64.6001   729.8950 </r>
       <r>    10.3680    58.8524   738.8589 </r>
       <r>    10.5203    53.3363   746.9827 </r>
       <r>    10.6726    59.3687   756.0253 </r>
       <r>    10.8250    56.4000   764.6156 </r>
       <r>    10.9773    22.2002   767.9970 </r>
       <r>    11.1296     0.0197   768.0000 </r>
       <r>    11.2819     0.0000   768.0000 </r>
       <r>    11.4342     0.0000   768.0000 </r>
       <r>    11.5865     0.0000   768.0000 </r>
       <r>    11.7388     0.0000   768.0000 </r>
       <r>    11.8911     0.0000   768.0000 </r>
       <r>    12.0434     0.0000   768.0000 </r>
       <r>    12.1958     0.0000   768.0000 </r>
       <r>    12.3481     0.0000   768.0000 </r>
       <r>    12.5004     0.0000   768.0000 </r>
       <r>    12.6527     0.0000   768.0000 </r>
       <r>    12.8050     0.0000   768.0000 </r>
       <r>    12.9573     0.0000   768.0000 </r>
      </set>
     </set>
    </array>
   </total>
  </dos>
 </calculation>
 <structure name="finalpos" >
  <crystal>
   <varray name="basis" >
    <v>      11.24706502       0.01325339       0.00886739 </v>
    <v>       0.01324263      11.24322231       0.00567172 </v>
    <v>       0.01260064       0.00806898      15.89923066 </v>
   </varray>
   <i name="volume">   2010.50486734 </i>
   <varray name="rec_basis" >
    <v>       0.08891226      -0.00010469      -0.00007041 </v>
    <v>      -0.00010477       0.08894262      -0.00004506 </v>
    <v>      -0.00004955      -0.00003167       0.06289618 </v>
   </varray>
  </crystal>
  <varray name="positions" >
   <v>       0.00840006       0.25104682       0.12252827 </v>
   <v>       0.99744694       0.24135288       0.62230335 </v>
   <v>       0.00769240       0.74809053       0.12593592 </v>
   <v>       0.00888097       0.75865215       0.61604417 </v>
   <v>       0.49199134       0.25344229       0.12192683 </v>
   <v>       0.50201625       0.24396040       0.62175657 </v>
   <v>       0.49398137       0.74515380       0.12421507 </v>
   <v>       0.48971631       0.75603415       0.61573161 </v>
   <v>       0.01139032       0.24563640       0.37523083 </v>
   <v>       0.99742172       0.24264878       0.87843443 </v>
   <v>       0.01639144       0.75182557       0.37205108 </v>
   <v>       0.00384598       0.75654792       0.88532089 </v>
   <v>       0.49087074       0.24995989       0.37622870 </v>
   <v>       0.50227682       0.24707617       0.88073792 </v>
   <v>       0.48646739       0.74867613       0.37338661 </v>
   <v>       0.49700462       0.75389759       0.88527604 </v>
   <v>       0.24993008       0.99879391       0.12667473 </v>
   <v>       0.24421613       0.00120890       0.62212147 </v>
   <v>       0.25154941       0.49804108       0.12846806 </v>
   <v>       0.24513778       0.50108807       0.61749898 </v>
   <v>       0.75106769       0.00148223       0.12054083 </v>
   <v>       0.75181622       0.01181268       0.62522243 </v>
   <v>       0.74802168       0.49909596       0.11913140 </v>
   <v>       0.74647103       0.49001232       0.62397125 </v>
   <v>       0.24887685       0.99633553       0.37345933 </v>
   <v>       0.24609186       0.00351966       0.87877590 </v>
   <v>       0.25088169       0.49956166       0.36956518 </v>
   <v>       0.24526658       0.49969059       0.88257465 </v>
   <v>       0.75506253       0.00765452       0.37561092 </v>
   <v>       0.74941283       0.00881209       0.87690616 </v>
   <v>       0.74824964       0.49595954       0.37751806 </v>
   <v>       0.74632088       0.49609102       0.87867584 </v>
   <v>       0.99943917       0.99986524       0.00000753 </v>
   <v>       0.00083708       0.99932480       0.49979681 </v>
   <v>       0.99994390       0.50079203       0.49483327 </v>
   <v>       0.50006950       0.99990216       0.00111550 </v>
   <v>       0.49897375       0.99944094       0.49797819 </v>
   <v>       0.49904521       0.50270191       0.49868997 </v>
   <v>       0.24969060       0.25415320       0.00081175 </v>
   <v>       0.25037359       0.25027350       0.50053468 </v>
   <v>       0.24908094       0.74543860       0.00389581 </v>
   <v>       0.75159459       0.25511972       0.99865920 </v>
   <v>       0.75150937       0.25200441       0.50076216 </v>
   <v>       0.74998807       0.74733508       0.99671228 </v>
   <v>       0.74761642       0.74930058       0.51104865 </v>
   <v>       0.24347115       0.24550578       0.74944254 </v>
   <v>       0.26214218       0.75793196       0.75035781 </v>
   <v>       0.73899228       0.24364550       0.24911374 </v>
   <v>       0.75066305       0.75121659       0.24186976 </v>
   <v>       0.76427387       0.75756278       0.75294092 </v>
   <v>       0.00288457       0.00000756       0.24999180 </v>
   <v>       0.98922775       0.48691886       0.74899667 </v>
   <v>       0.49357009       0.99484048       0.25038442 </v>
   <v>       0.50315343       0.00466426       0.74993113 </v>
   <v>       0.49962485       0.49962090       0.24892004 </v>
   <v>       0.48995110       0.48483574       0.74995428 </v>
   <v>       0.99834219       0.50052419       0.00446991 </v>
   <v>       0.50098302       0.50207287       0.99971453 </v>
   <v>       0.24884606       0.74841228       0.49713171 </v>
   <v>       0.25019248       0.24980580       0.24892289 </v>
   <v>       0.25243323       0.75025786       0.25024204 </v>
   <v>       0.74743729       0.24555070       0.75089255 </v>
   <v>       0.99973984       0.00307740       0.75074879 </v>
   <v>       0.00881697       0.50983033       0.25008928 </v>
   <v>       0.11682256       0.12903864       0.24525490 </v>
   <v>       0.10927837       0.14086950       0.74707600 </v>
   <v>       0.11768569       0.63519300       0.24847889 </v>
   <v>       0.61312204       0.13894758       0.25016736 </v>
   <v>       0.60633071       0.13831224       0.74931176 </v>
   <v>       0.61615616       0.64298153       0.25970407 </v>
   <v>       0.39250063       0.36285218       0.25041484 </v>
   <v>       0.39396299       0.35125390       0.75039053 </v>
   <v>       0.38867728       0.86334937       0.24902232 </v>
   <v>       0.39422641       0.85593480       0.74929690 </v>
   <v>       0.89312414       0.35445241       0.75037062 </v>
   <v>       0.87770800       0.86472569       0.26872450 </v>
   <v>       0.89499480       0.85242133       0.75151364 </v>
   <v>       0.36599783       0.11191178       0.24657812 </v>
   <v>       0.35769147       0.10229631       0.74640626 </v>
   <v>       0.36801241       0.61177468       0.25034035 </v>
   <v>       0.35422712       0.60384938       0.74864816 </v>
   <v>       0.87029301       0.12860173       0.24994638 </v>
   <v>       0.85655100       0.10459623       0.75037847 </v>
   <v>       0.85907080       0.61807397       0.26203054 </v>
   <v>       0.84409206       0.60249423       0.74727408 </v>
   <v>       0.12455267       0.37742782       0.25166186 </v>
   <v>       0.14261259       0.39623419       0.74821308 </v>
   <v>       0.13074588       0.88444808       0.24943464 </v>
   <v>       0.13678635       0.87687262       0.74977061 </v>
   <v>       0.65212626       0.39450252       0.25039426 </v>
   <v>       0.64046157       0.39610158       0.74945174 </v>
   <v>       0.63919800       0.88624848       0.26352098 </v>
   <v>       0.63757536       0.87731411       0.75109785 </v>
   <v>       0.36892299       0.38287665       0.99192700 </v>
   <v>       0.37057178       0.38419878       0.50883730 </v>
   <v>       0.36578422       0.88316492       0.99234799 </v>
   <v>       0.36926855       0.88363847       0.50863843 </v>
   <v>       0.86772306       0.38478195       0.98721126 </v>
   <v>       0.86795547       0.38663201       0.51257018 </v>
   <v>       0.86259085       0.88405539       0.98949631 </v>
   <v>       0.86145644       0.88128315       0.49759578 </v>
   <v>       0.13309692       0.11477574       0.00750190 </v>
   <v>       0.13415723       0.11732406       0.50092631 </v>
   <v>       0.13293146       0.61504346       0.01251593 </v>
   <v>       0.12994969       0.61348241       0.48849376 </v>
   <v>       0.63455219       0.11758598       0.00660725 </v>
   <v>       0.63493111       0.11970587       0.49252005 </v>
   <v>       0.63522685       0.61992412       0.00635044 </v>
   <v>       0.63631911       0.62330795       0.48364142 </v>
   <v>       0.11540386       0.36591200       0.99498264 </v>
   <v>       0.11548041       0.36699255       0.50460312 </v>
   <v>       0.11497066       0.86510326       0.00174748 </v>
   <v>       0.11513956       0.86782859       0.49955622 </v>
   <v>       0.61782625       0.36709978       0.99946313 </v>
   <v>       0.61865682       0.36999871       0.50182289 </v>
   <v>       0.61646364       0.86605498       0.99859670 </v>
   <v>       0.62085084       0.86414506       0.48597246 </v>
   <v>       0.38469036       0.13222732       0.00128801 </v>
   <v>       0.38551606       0.13426118       0.50476239 </v>
   <v>       0.38310539       0.63483354       0.99918770 </v>
   <v>       0.38477905       0.63210621       0.50169035 </v>
   <v>       0.88405012       0.13386099       0.00240645 </v>
   <v>       0.88361982       0.13481485       0.49936762 </v>
   <v>       0.88364297       0.63771129       0.00093946 </v>
   <v>       0.87941692       0.63987225       0.48896674 </v>
   <v>       0.98474070       0.98620904       0.12644197 </v>
   <v>       0.99731278       0.99740206       0.62322174 </v>
   <v>       0.97615434       0.48394417       0.13127540 </v>
   <v>       0.01084987       0.52760057       0.63009921 </v>
   <v>       0.50417134       0.99133107       0.12563334 </v>
   <v>       0.51406415       0.99700394       0.62362322 </v>
   <v>       0.50245384       0.50023489       0.12685395 </v>
   <v>       0.51921795       0.52452914       0.62960329 </v>
   <v>       0.00191012       0.00560026       0.37583364 </v>
   <v>       0.00670384       0.00417496       0.87672567 </v>
   <v>       0.98578034       0.47996972       0.37381712 </v>
   <v>       0.01630812       0.53067816       0.86300924 </v>
   <v>       0.48908449       0.00434576       0.37553549 </v>
   <v>       0.50433059       0.00336286       0.87433115 </v>
   <v>       0.49608935       0.49268628       0.37674769 </v>
   <v>       0.51551277       0.52244570       0.86679346 </v>
   <v>       0.25438228       0.25180621       0.37840260 </v>
   <v>       0.24758860       0.24156734       0.87318841 </v>
   <v>       0.25488387       0.75628716       0.37471906 </v>
   <v>       0.23603969       0.73472093       0.87168607 </v>
   <v>       0.76727744       0.26527852       0.37178384 </v>
   <v>       0.74473454       0.24359058       0.87592392 </v>
   <v>       0.73621755       0.73434728       0.87117360 </v>
   <v>       0.25436308       0.25904131       0.12252543 </v>
   <v>       0.24933513       0.24837953       0.62625079 </v>
   <v>       0.25686690       0.75657958       0.12440880 </v>
   <v>       0.23503038       0.73410694       0.62970010 </v>
   <v>       0.76528035       0.26547957       0.12826147 </v>
   <v>       0.74578634       0.24506325       0.62388995 </v>
   <v>       0.75615142       0.76054012       0.12556620 </v>
   <v>       0.73166791       0.73791448       0.62778175 </v>
  </varray>
 </structure>
</modeling>
